LAMMPS (2 Aug 2023)
WARNING: Using I/O redirection is unreliable with parallel runs. Better to use the -in switch to read input files. (src/lammps.cpp:537)
OMP_NUM_THREADS environment is not set. Defaulting to 1 thread. (src/comm.cpp:98)
  using 1 OpenMP thread(s) per MPI task
# Compute elastic constant tensor for a crystal
#
# Written by Aidan Thompson (Sandia, athomps@sandia.gov)
#
#  This script uses the following three include files.
#
#   init.mod      (must be modified for different crystal structures)
# 	       	  Define units, deformation parameters and initial
#		  configuration of the atoms and simulation cell.
#
#
#   potential.mod    (must be modified for different pair styles)
# 		     Define pair style and other attributes
#		     not stored in restart file
#
#
#   displace.mod    (displace.mod should not need to be modified)
# 		    Perform positive and negative box displacements
# 		    in direction ${dir} and size ${up}.
# 		    It uses the resultant changes
#		    in stress to compute one
# 		    row of the elastic stiffness tensor
#
#		    Inputs variables:
#		    	   dir = the Voigt deformation component
#		    		    (1,2,3,4,5,6)
#		    Global constants:
#       	    	   up = the deformation magnitude (strain units)
#       		   cfac = conversion from LAMMPS pressure units to
#               	   output units for elastic constants
#
#
#  To run this on a different system, it should only be necessary to
#  modify the files init.mod and potential.mod. In order to calculate
#  the elastic constants correctly, care must be taken to specify
#  the correct units in init.mod (units, cfac and cunits). It is also
#  important to verify that the minimization of energy w.r.t atom
#  positions in the deformed cell is fully converged.
#  One indication of this is that the elastic constants are insensitive
#  to the choice of the variable ${up} in init.mod. Another is to check
#  the final max and two-norm forces reported in the log file. If you know
#  that minimization is not required, you can set maxiter = 0.0 in
#  init.mod.
#

include init.mod
# NOTE: This script can be modified for different atomic structures,
# units, etc. See in.elastic for more info.
#

# Define the finite deformation size. Try several values of this
# variable to verify that results do not depend on it.
variable up equal 1.0e-6

# Define the amount of random jiggle for atoms
# This prevents atoms from staying on saddle points
variable atomjiggle equal 1.0e-5

# Uncomment one of these blocks, depending on what units
# you are using in LAMMPS and for output

# metal units, elastic constants in eV/A^3
#units		metal
#variable cfac equal 6.2414e-7
#variable cunits string eV/A^3

# metal units, elastic constants in GPa
units		metal
variable cfac equal 1.0e-4
variable cunits string GPa

# real units, elastic constants in GPa
#units		real
#variable cfac equal 1.01325e-4
#variable cunits string GPa

# Define minimization parameters
variable etol equal 0.0
variable ftol equal 1.0e-10
variable maxiter equal 100
variable maxeval equal 1000
variable dmax equal 1.0e-2

# generate the box and atom positions using a diamond lattice
variable a equal 5.43

boundary	p p p

lattice         diamond $a
lattice         diamond 5.43
Lattice spacing in x,y,z = 5.43 5.43 5.43
region		box prism 0 2.0 0 3.0 0 4.0 0.0 0.0 0.0
#create_box	1 box
#create_atoms	1 box

read_data	min.CoCrNi_27nmx_27nmy_27nmz_random.dat
Reading data file ...
  orthogonal box = (0.13462857 0.13690499 0.13986928) to (271.73379 274.54887 277.33467)
  1 by 2 by 3 MPI processor grid
  reading atoms ...
  1837080 atoms
  reading velocities ...
  1837080 velocities
  read_data CPU = 6.296 seconds

variable r equal 1.

change_box all x scale $r y scale $r z scale $r remap
change_box all x scale 1 y scale $r z scale $r remap
change_box all x scale 1 y scale 1 z scale $r remap
change_box all x scale 1 y scale 1 z scale 1 remap
Changing box ...
  orthogonal box = (0.13462857 0.13690499 0.13986928) to (271.73379 274.54887 277.33467)
  orthogonal box = (0.13462857 0.13690499 0.13986928) to (271.73379 274.54887 277.33467)
  orthogonal box = (0.13462857 0.13690499 0.13986928) to (271.73379 274.54887 277.33467)

change_box	all triclinic
Changing box ...
  triclinic box = (0.13462857 0.13690499 0.13986928) to (271.73379 274.54887 277.33467) with tilt (0 0 0)

# Need to set mass to something, just to satisfy LAMMPS
mass 1 1
mass 2 1
mass 3 1
include potential.mod
# NOTE: This script can be modified for different pair styles
# See in.elastic for more info.

# Choose potential
pair_style	eam/alloy
pair_coeff * * CoCrNi.lammps.eam Ni Co Cr

# Setup neighbor style
neighbor 1.0 nsq
neigh_modify once no every 1 delay 0 check yes

# Setup minimization style
min_style	     cg
min_modify	     dmax ${dmax} line quadratic
min_modify	     dmax 0.01 line quadratic

# Setup output
thermo		1
thermo_style custom step temp pe press pxx pyy pzz pxy pxz pyz lx ly lz vol
thermo_modify norm no

# Compute initial state
fix 3 all box/relax  aniso 0.0
minimize ${etol} ${ftol} ${maxiter} ${maxeval}
minimize 0 ${ftol} ${maxiter} ${maxeval}
minimize 0 1e-10 ${maxiter} ${maxeval}
minimize 0 1e-10 100 ${maxeval}
minimize 0 1e-10 100 1000
Neighbor list info ...
  update: every = 1 steps, delay = 0 steps, check = yes
  max neighbors/atom: 2000, page size: 100000
  master list distance cutoff = 6.88
  ghost atom cutoff = 6.88
  1 neighbor lists, perpetual/occasional/extra = 1 0 0
  (1) pair eam/alloy, perpetual
      attributes: half, newton on
      pair build: half/nsq/newton
      stencil: none
      bin: none
WARNING: Energy due to 3 extra global DOFs will be included in minimizer energies
 (src/min.cpp:225)
Per MPI rank memory allocation (min/avg/max) = 182.5 | 182.8 | 183 Mbytes
   Step          Temp          PotEng         Press           Pxx            Pyy            Pzz            Pxy            Pxz            Pyz             Lx             Ly             Lz           Volume    
         0   0             -7938966.1      4.9961809      4.9808881      4.9872191      5.0204355      3.0232093      15.010149     -11.543908      271.59916      274.41197      277.1948       20659345     
         1   0             -7938966.1     -0.0041358174  -0.01409119    -0.010380781    0.012064519    3.023151       15.010431     -11.544496      271.59937      274.41219      277.19502      20659394     
         2   0             -7938966.1     -0.0041358174  -0.01409119    -0.010380781    0.012064519    3.023151       15.010431     -11.544496      271.59937      274.41219      277.19502      20659394     
Loop time of 10.4082 on 6 procs for 2 steps with 1837080 atoms

98.7% CPU use with 6 MPI tasks x 1 OpenMP threads

Minimization stats:
  Stopping criterion = linesearch alpha is zero
  Energy initial, next-to-last, final = 
     -7938966.05464883  -7938966.05472585  -7938966.05472585
  Force two-norm initial, final = 111.58546 0.27434307
  Force max component initial, final = 64.736257 0.18169985
  Final line search alpha, max atom move = 1.167993e-07 2.1222416e-08
  Iterations, force evaluations = 2 27

MPI task timing breakdown:
Section |  min time  |  avg time  |  max time  |%varavg| %total
---------------------------------------------------------------
Pair    | 9.9304     | 9.9802     | 10.029     |   1.1 | 95.89
Neigh   | 0          | 0          | 0          |   0.0 |  0.00
Comm    | 0.12272    | 0.17228    | 0.2224     |   8.6 |  1.66
Output  | 0.0012143  | 0.0012172  | 0.0012298  |   0.0 |  0.01
Modify  | 0          | 0          | 0          |   0.0 |  0.00
Other   |            | 0.2546     |            |       |  2.45

Nlocal:         306180 ave      307007 max      305135 min
Histogram: 1 0 0 2 0 0 0 0 2 1
Nghost:         103101 ave      104146 max      102274 min
Histogram: 1 2 0 0 0 0 2 0 0 1
Neighs:    2.05139e+07 ave 2.05837e+07 max 2.04288e+07 min
Histogram: 1 0 0 0 1 1 1 1 0 1

Total # of neighbors = 1.2308368e+08
Ave neighs/atom = 66.999631
Neighbor list builds = 0
Dangerous builds = 0

variable tmp equal pxx
variable pxx0 equal ${tmp}
variable pxx0 equal -0.0140911903752133
variable tmp equal pyy
variable pyy0 equal ${tmp}
variable pyy0 equal -0.0103807808485564
variable tmp equal pzz
variable pzz0 equal ${tmp}
variable pzz0 equal 0.0120645189036317
variable tmp equal pyz
variable pyz0 equal ${tmp}
variable pyz0 equal -11.5444956949689
variable tmp equal pxz
variable pxz0 equal ${tmp}
variable pxz0 equal 15.0104309233242
variable tmp equal pxy
variable pxy0 equal ${tmp}
variable pxy0 equal 3.02315102620689

variable tmp equal lx
variable lx0 equal ${tmp}
variable lx0 equal 271.599372576292
variable tmp equal ly
variable ly0 equal ${tmp}
variable ly0 equal 274.412186776684
variable tmp equal lz
variable lz0 equal ${tmp}
variable lz0 equal 277.195021462222

# These formulas define the derivatives w.r.t. strain components
# Constants uses $, variables use v_
variable d1 equal -(v_pxx1-${pxx0})/(v_delta/v_len0)*${cfac}
variable d1 equal -(v_pxx1--0.0140911903752133)/(v_delta/v_len0)*${cfac}
variable d1 equal -(v_pxx1--0.0140911903752133)/(v_delta/v_len0)*0.0001
variable d2 equal -(v_pyy1-${pyy0})/(v_delta/v_len0)*${cfac}
variable d2 equal -(v_pyy1--0.0103807808485564)/(v_delta/v_len0)*${cfac}
variable d2 equal -(v_pyy1--0.0103807808485564)/(v_delta/v_len0)*0.0001
variable d3 equal -(v_pzz1-${pzz0})/(v_delta/v_len0)*${cfac}
variable d3 equal -(v_pzz1-0.0120645189036317)/(v_delta/v_len0)*${cfac}
variable d3 equal -(v_pzz1-0.0120645189036317)/(v_delta/v_len0)*0.0001
variable d4 equal -(v_pyz1-${pyz0})/(v_delta/v_len0)*${cfac}
variable d4 equal -(v_pyz1--11.5444956949689)/(v_delta/v_len0)*${cfac}
variable d4 equal -(v_pyz1--11.5444956949689)/(v_delta/v_len0)*0.0001
variable d5 equal -(v_pxz1-${pxz0})/(v_delta/v_len0)*${cfac}
variable d5 equal -(v_pxz1-15.0104309233242)/(v_delta/v_len0)*${cfac}
variable d5 equal -(v_pxz1-15.0104309233242)/(v_delta/v_len0)*0.0001
variable d6 equal -(v_pxy1-${pxy0})/(v_delta/v_len0)*${cfac}
variable d6 equal -(v_pxy1-3.02315102620689)/(v_delta/v_len0)*${cfac}
variable d6 equal -(v_pxy1-3.02315102620689)/(v_delta/v_len0)*0.0001

displace_atoms all random ${atomjiggle} ${atomjiggle} ${atomjiggle} 87287 units box
displace_atoms all random 1e-05 ${atomjiggle} ${atomjiggle} 87287 units box
displace_atoms all random 1e-05 1e-05 ${atomjiggle} 87287 units box
displace_atoms all random 1e-05 1e-05 1e-05 87287 units box
Displacing atoms ...

# Write restart
unfix 3
write_restart restart.equil
System init for write_restart ...

# uxx Perturbation

variable dir equal 1
include displace.mod
# NOTE: This script should not need to be
# modified. See in.elastic for more info.
#
# Find which reference length to use

if "${dir} == 1" then    "variable len0 equal ${lx0}"
variable len0 equal ${lx0}
variable len0 equal 271.599372576292
if "${dir} == 2" then    "variable len0 equal ${ly0}"
if "${dir} == 3" then    "variable len0 equal ${lz0}"
if "${dir} == 4" then    "variable len0 equal ${lz0}"
if "${dir} == 5" then    "variable len0 equal ${lz0}"
if "${dir} == 6" then    "variable len0 equal ${ly0}"

# Reset box and simulation parameters

clear
OMP_NUM_THREADS environment is not set. Defaulting to 1 thread. (src/comm.cpp:98)
  using 1 OpenMP thread(s) per MPI task
box tilt large

The 'box' command has been removed and will be ignored

read_restart restart.equil
Reading restart file ...
  restart file = 2 Aug 2023, LAMMPS = 2 Aug 2023
  restoring atom style atomic from restart
  triclinic box = (0.13452133 0.13679649 0.13975895) to (271.73389 274.54898 277.33478) with tilt (0 0 0)
  1 by 2 by 3 MPI processor grid
  pair style eam/alloy stores no restart info
  1837080 atoms
  read_restart CPU = 0.096 seconds
include potential.mod
# NOTE: This script can be modified for different pair styles
# See in.elastic for more info.

# Choose potential
pair_style	eam/alloy
pair_coeff * * CoCrNi.lammps.eam Ni Co Cr

# Setup neighbor style
neighbor 1.0 nsq
neigh_modify once no every 1 delay 0 check yes

# Setup minimization style
min_style	     cg
min_modify	     dmax ${dmax} line quadratic
min_modify	     dmax 0.01 line quadratic

# Setup output
thermo		1
thermo_style custom step temp pe press pxx pyy pzz pxy pxz pyz lx ly lz vol
thermo_modify norm no

# Negative deformation

variable delta equal -${up}*${len0}
variable delta equal -1e-06*${len0}
variable delta equal -1e-06*271.599372576292
variable deltaxy equal -${up}*xy
variable deltaxy equal -1e-06*xy
variable deltaxz equal -${up}*xz
variable deltaxz equal -1e-06*xz
variable deltayz equal -${up}*yz
variable deltayz equal -1e-06*yz
if "${dir} == 1" then    "change_box all x delta 0 ${delta} xy delta ${deltaxy} xz delta ${deltaxz} remap units box"
change_box all x delta 0 ${delta} xy delta ${deltaxy} xz delta ${deltaxz} remap units box
change_box all x delta 0 -0.000271599372576292 xy delta ${deltaxy} xz delta ${deltaxz} remap units box
change_box all x delta 0 -0.000271599372576292 xy delta -0 xz delta ${deltaxz} remap units box
change_box all x delta 0 -0.000271599372576292 xy delta -0 xz delta -0 remap units box
Changing box ...
  triclinic box = (0.13452133 0.13679649 0.13975895) to (271.73362 274.54898 277.33478) with tilt (0 0 0)
  triclinic box = (0.13452133 0.13679649 0.13975895) to (271.73362 274.54898 277.33478) with tilt (0 0 0)
  triclinic box = (0.13452133 0.13679649 0.13975895) to (271.73362 274.54898 277.33478) with tilt (0 0 0)
if "${dir} == 2" then    "change_box all y delta 0 ${delta} yz delta ${deltayz} remap units box"
if "${dir} == 3" then    "change_box all z delta 0 ${delta} remap units box"
if "${dir} == 4" then    "change_box all yz delta ${delta} remap units box"
if "${dir} == 5" then    "change_box all xz delta ${delta} remap units box"
if "${dir} == 6" then    "change_box all xy delta ${delta} remap units box"

# Relax atoms positions

minimize ${etol} ${ftol} ${maxiter} ${maxeval}
minimize 0 ${ftol} ${maxiter} ${maxeval}
minimize 0 1e-10 ${maxiter} ${maxeval}
minimize 0 1e-10 100 ${maxeval}
minimize 0 1e-10 100 1000
Neighbor list info ...
  update: every = 1 steps, delay = 0 steps, check = yes
  max neighbors/atom: 2000, page size: 100000
  master list distance cutoff = 6.88
  ghost atom cutoff = 6.88
  1 neighbor lists, perpetual/occasional/extra = 1 0 0
  (1) pair eam/alloy, perpetual
      attributes: half, newton on
      pair build: half/nsq/newton
      stencil: none
      bin: none
Per MPI rank memory allocation (min/avg/max) = 182.5 | 182.8 | 183 Mbytes
   Step          Temp          PotEng         Press           Pxx            Pyy            Pzz            Pxy            Pxz            Pyz             Lx             Ly             Lz           Volume    
         2   0             -7938966.1      2.0998176      3.2542163      1.6030772      1.4421593      3.0240491      15.011022     -11.806154      271.5991       274.41219      277.19502      20659374     
         3   0             -7938966.1      2.1477417      3.2626651      1.6716634      1.5088967      3.0232659      15.01058      -11.806674      271.5991       274.41219      277.19502      20659374     
         4   0             -7938966.1      2.1749422      3.2652868      1.7113425      1.5481972      3.0234625      15.010478     -11.807884      271.5991       274.41219      277.19502      20659374     
         5   0             -7938966.1      2.1872622      3.266326       1.730138       1.5653227      3.0231368      15.010356     -11.810171      271.5991       274.41219      277.19502      20659374     
         6   0             -7938966.1      2.1964571      3.2689815      1.7436395      1.5767503      3.0229797      15.010377     -11.812678      271.5991       274.41219      277.19502      20659374     
         7   0             -7938966.1      2.204909       3.2724927      1.7555004      1.5867339      3.0227488      15.010414     -11.815133      271.5991       274.41219      277.19502      20659374     
         8   0             -7938966.1      2.2126183      3.2757268      1.7663291      1.5957989      3.0226248      15.01028      -11.817758      271.5991       274.41219      277.19502      20659374     
         9   0             -7938966.1      2.2189636      3.278194       1.7754398      1.603257       3.0224872      15.010192     -11.820459      271.5991       274.41219      277.19502      20659374     
        10   0             -7938966.1      2.2236497      3.2802466      1.7822875      1.608415       3.0223112      15.010168     -11.822856      271.5991       274.41219      277.19502      20659374     
        11   0             -7938966.1      2.2262535      3.2818435      1.785862       1.611055       3.0222467      15.010273     -11.824301      271.5991       274.41219      277.19502      20659374     
        12   0             -7938966.1      2.2264139      3.2821422      1.7859584      1.6111412      3.0222664      15.010379     -11.824587      271.5991       274.41219      277.19502      20659374     
        13   0             -7938966.1      2.2246821      3.2816257      1.7833638      1.6090566      3.0223424      15.010478     -11.823904      271.5991       274.41219      277.19502      20659374     
        14   0             -7938966.1      2.2222857      3.2809137      1.7798402      1.6061032      3.0224216      15.01046      -11.822824      271.5991       274.41219      277.19502      20659374     
        15   0             -7938966.1      2.2199499      3.2803224      1.7762867      1.6032407      3.0223578      15.010381     -11.821655      271.5991       274.41219      277.19502      20659374     
        16   0             -7938966.1      2.2179604      3.2798446      1.7730849      1.6009517      3.0224256      15.010298     -11.820529      271.5991       274.41219      277.19502      20659374     
        17   0             -7938966.1      2.2162625      3.2793638      1.7704631      1.5989608      3.0225008      15.010226     -11.819551      271.5991       274.41219      277.19502      20659374     
        18   0             -7938966.1      2.2144645      3.278325       1.7680957      1.5969727      3.0224849      15.010315     -11.818744      271.5991       274.41219      277.19502      20659374     
        19   0             -7938966.1      2.212367       3.2765524      1.7656768      1.5948719      3.0225621      15.010453     -11.8183        271.5991       274.41219      277.19502      20659374     
        20   0             -7938966.1      2.209915       3.2739019      1.763201       1.5926421      3.0227316      15.010589     -11.818119      271.5991       274.41219      277.19502      20659374     
        21   0             -7938966.1      2.2071946      3.2708508      1.7606143      1.5901188      3.0230167      15.010851     -11.818144      271.5991       274.41219      277.19502      20659374     
        22   0             -7938966.1      2.2049672      3.268059       1.7587773      1.5880653      3.0232825      15.011222     -11.818257      271.5991       274.41219      277.19502      20659374     
        23   0             -7938966.1      2.2036733      3.2661853      1.7579049      1.5869297      3.0235032      15.011469     -11.818567      271.5991       274.41219      277.19502      20659374     
        24   0             -7938966.1      2.2038217      3.2657567      1.7584072      1.5873013      3.0236677      15.011685     -11.818858      271.5991       274.41219      277.19502      20659374     
        25   0             -7938966.1      2.2054291      3.2669573      1.7602919      1.589038       3.0238382      15.011794     -11.819197      271.5991       274.41219      277.19502      20659374     
        26   0             -7938966.1      2.2079504      3.2690898      1.762999       1.5917623      3.0239162      15.011768     -11.819355      271.5991       274.41219      277.19502      20659374     
        27   0             -7938966.1      2.2107955      3.2713905      1.7659881      1.595008       3.0237669      15.011715     -11.819586      271.5991       274.41219      277.19502      20659374     
        28   0             -7938966.1      2.2132207      3.2736184      1.7684928      1.5975509      3.0238071      15.011746     -11.819747      271.5991       274.41219      277.19502      20659374     
        29   0             -7938966.1      2.2150279      3.2751704      1.770488       1.5994253      3.0239571      15.011707     -11.819852      271.5991       274.41219      277.19502      20659374     
        30   0             -7938966.1      2.2160794      3.2760769      1.7716668      1.6004945      3.0239747      15.011692     -11.819883      271.5991       274.41219      277.19502      20659374     
        31   0             -7938966.1      2.2166627      3.2766273      1.7723363      1.6010245      3.0239969      15.011848     -11.819897      271.5991       274.41219      277.19502      20659374     
        32   0             -7938966.1      2.2171061      3.2769755      1.7728286      1.6015141      3.0240138      15.011916     -11.819876      271.5991       274.41219      277.19502      20659374     
        33   0             -7938966.1      2.2175758      3.2774684      1.7732827      1.6019764      3.0242597      15.011842     -11.819932      271.5991       274.41219      277.19502      20659374     
        34   0             -7938966.1      2.2180832      3.2779911      1.7739375      1.6023211      3.0244007      15.011786     -11.819898      271.5991       274.41219      277.19502      20659374     
        35   0             -7938966.1      2.2182753      3.2782082      1.7742026      1.6024151      3.0243609      15.011622     -11.819934      271.5991       274.41219      277.19502      20659374     
        36   0             -7938966.1      2.2175461      3.2774259      1.7736359      1.6015766      3.0242449      15.011459     -11.819912      271.5991       274.41219      277.19502      20659374     
        37   0             -7938966.1      2.2158776      3.2757517      1.7720912      1.5997899      3.0241971      15.011331     -11.819946      271.5991       274.41219      277.19502      20659374     
        38   0             -7938966.1      2.2132562      3.2731186      1.7695144      1.5971356      3.0241415      15.011156     -11.819879      271.5991       274.41219      277.19502      20659374     
        39   0             -7938966.1      2.2104179      3.2701197      1.7668992      1.5942348      3.0240294      15.011029     -11.819804      271.5991       274.41219      277.19502      20659374     
        40   0             -7938966.1      2.2078159      3.2674034      1.7643119      1.5917324      3.0239519      15.010982     -11.819765      271.5991       274.41219      277.19502      20659374     
        41   0             -7938966.1      2.2061388      3.2656219      1.7625489      1.5902457      3.0239435      15.011007     -11.819819      271.5991       274.41219      277.19502      20659374     
        42   0             -7938966.1      2.2056729      3.2651168      1.7620489      1.589853       3.0240646      15.011133     -11.819861      271.5991       274.41219      277.19502      20659374     
        43   0             -7938966.1      2.2061977      3.265647       1.7626171      1.5903291      3.0241746      15.011113     -11.819944      271.5991       274.41219      277.19502      20659374     
        44   0             -7938966.1      2.2075593      3.2670279      1.7641644      1.5914856      3.0242993      15.011067     -11.820032      271.5991       274.41219      277.19502      20659374     
        45   0             -7938966.1      2.2091114      3.2685085      1.7658398      1.5929859      3.0243539      15.011014     -11.820198      271.5991       274.41219      277.19502      20659374     
        46   0             -7938966.1      2.2105008      3.2698169      1.7673365      1.5943491      3.024421       15.011013     -11.820391      271.5991       274.41219      277.19502      20659374     
        47   0             -7938966.1      2.2117818      3.2709707      1.7687502      1.5956244      3.0245399      15.011015     -11.820495      271.5991       274.41219      277.19502      20659374     
        48   0             -7938966.1      2.2128604      3.2720631      1.7699252      1.596593       3.0246613      15.010963     -11.820524      271.5991       274.41219      277.19502      20659374     
        49   0             -7938966.1      2.213965       3.2731761      1.7710472      1.5976718      3.0248034      15.010965     -11.820458      271.5991       274.41219      277.19502      20659374     
        50   0             -7938966.1      2.2152254      3.2743392      1.7722975      1.5990397      3.0249086      15.010986     -11.820281      271.5991       274.41219      277.19502      20659374     
        51   0             -7938966.1      2.2163544      3.2754268      1.7733423      1.600294       3.0249344      15.011027     -11.820108      271.5991       274.41219      277.19502      20659374     
        52   0             -7938966.1      2.2171814      3.2764518      1.7739996      1.6010929      3.0249667      15.011093     -11.819997      271.5991       274.41219      277.19502      20659374     
        53   0             -7938966.1      2.2174349      3.2768369      1.7739862      1.6014815      3.0250595      15.011174     -11.819792      271.5991       274.41219      277.19502      20659374     
        54   0             -7938966.1      2.2169652      3.2765624      1.7733544      1.6009787      3.0251186      15.011467     -11.819658      271.5991       274.41219      277.19502      20659374     
        55   0             -7938966.1      2.2157452      3.2755045      1.7720735      1.5996576      3.0252518      15.011642     -11.819628      271.5991       274.41219      277.19502      20659374     
        56   0             -7938966.1      2.2138696      3.2737509      1.7700601      1.5977978      3.025462       15.011755     -11.819733      271.5991       274.41219      277.19502      20659374     
        57   0             -7938966.1      2.2116319      3.2715594      1.767741       1.5955953      3.0256801      15.011955     -11.819632      271.5991       274.41219      277.19502      20659374     
        58   0             -7938966.1      2.2095134      3.2693128      1.7656797      1.5935478      3.025847       15.012157     -11.81945       271.5991       274.41219      277.19502      20659374     
        59   0             -7938966.1      2.2076705      3.2674589      1.763746       1.5918068      3.0259709      15.012364     -11.819385      271.5991       274.41219      277.19502      20659374     
        60   0             -7938966.1      2.2063759      3.2661379      1.7623787      1.5906111      3.0261595      15.01261      -11.819266      271.5991       274.41219      277.19502      20659374     
        61   0             -7938966.1      2.2058235      3.265533       1.7618253      1.5901121      3.0263183      15.012906     -11.819212      271.5991       274.41219      277.19502      20659374     
        62   0             -7938966.1      2.2060606      3.2658206      1.7621295      1.5902315      3.0264595      15.01311      -11.819186      271.5991       274.41219      277.19502      20659374     
        63   0             -7938966.1      2.2069026      3.2667362      1.7630507      1.590921       3.0265172      15.013149     -11.819263      271.5991       274.41219      277.19502      20659374     
        64   0             -7938966.1      2.2083102      3.2682758      1.7643989      1.592256       3.0266381      15.013231     -11.819335      271.5991       274.41219      277.19502      20659374     
        65   0             -7938966.1      2.2100554      3.2702334      1.7659816      1.5939512      3.0265865      15.013234     -11.819346      271.5991       274.41219      277.19502      20659374     
        66   0             -7938966.1      2.211746       3.2720901      1.7675649      1.595583       3.0264143      15.013299     -11.819254      271.5991       274.41219      277.19502      20659374     
        67   0             -7938966.1      2.2132021      3.2736196      1.7689002      1.5970865      3.0261737      15.013297     -11.819126      271.5991       274.41219      277.19502      20659374     
        68   0             -7938966.1      2.2141802      3.2747862      1.7696701      1.5980842      3.0260171      15.013199     -11.818977      271.5991       274.41219      277.19502      20659374     
        69   0             -7938966.1      2.2148812      3.2756729      1.7701364      1.5988344      3.0259115      15.013173     -11.818802      271.5991       274.41219      277.19502      20659374     
        70   0             -7938966.1      2.2151823      3.2760889      1.7702058      1.5992522      3.0257533      15.013115     -11.818695      271.5991       274.41219      277.19502      20659374     
        71   0             -7938966.1      2.2151157      3.2760264      1.770051       1.5992696      3.0255327      15.013084     -11.818748      271.5991       274.41219      277.19502      20659374     
        72   0             -7938966.1      2.2148305      3.2757241      1.7697611      1.5990063      3.0253817      15.013111     -11.818779      271.5991       274.41219      277.19502      20659374     
        73   0             -7938966.1      2.2140943      3.2749907      1.7690217      1.5982706      3.0252807      15.013153     -11.818808      271.5991       274.41219      277.19502      20659374     
        74   0             -7938966.1      2.212779       3.2735694      1.7677573      1.5970103      3.0251915      15.013063     -11.818868      271.5991       274.41219      277.19502      20659374     
        75   0             -7938966.1      2.2108504      3.2715321      1.7660486      1.5949705      3.0251324      15.012898     -11.81887       271.5991       274.41219      277.19502      20659374     
        76   0             -7938966.1      2.2082068      3.2689013      1.7635331      1.5921861      3.0250355      15.012655     -11.8189        271.5991       274.41219      277.19502      20659374     
        77   0             -7938966.1      2.2053218      3.2659538      1.7607271      1.5892846      3.0248805      15.012381     -11.818955      271.5991       274.41219      277.19502      20659374     
        78   0             -7938966.1      2.2028395      3.2634003      1.7582588      1.5868594      3.0247954      15.0121       -11.818929      271.5991       274.41219      277.19502      20659374     
        79   0             -7938966.1      2.2010944      3.2615097      1.7566184      1.5851551      3.0247529      15.011828     -11.818934      271.5991       274.41219      277.19502      20659374     
        80   0             -7938966.1      2.2005214      3.2607602      1.756198       1.584606       3.0247482      15.011613     -11.819091      271.5991       274.41219      277.19502      20659374     
        81   0             -7938966.1      2.2010753      3.2611853      1.7568112      1.5852295      3.0247878      15.011427     -11.819225      271.5991       274.41219      277.19502      20659374     
        82   0             -7938966.1      2.2024582      3.2625138      1.7582213      1.5866394      3.0247217      15.011284     -11.819321      271.5991       274.41219      277.19502      20659374     
        83   0             -7938966.1      2.2041443      3.264174       1.7599545      1.5883044      3.024572       15.011164     -11.819359      271.5991       274.41219      277.19502      20659374     
        84   0             -7938966.1      2.2056354      3.2656804      1.7614485      1.5897774      3.0244419      15.010993     -11.819441      271.5991       274.41219      277.19502      20659374     
        85   0             -7938966.1      2.2069146      3.2669488      1.7627721      1.5910229      3.0243768      15.010934     -11.819494      271.5991       274.41219      277.19502      20659374     
        86   0             -7938966.1      2.2080587      3.2679559      1.7641         1.5921203      3.0244284      15.01081      -11.819705      271.5991       274.41219      277.19502      20659374     
        87   0             -7938966.1      2.2092308      3.2689598      1.7654836      1.593249       3.024447       15.010715     -11.81987       271.5991       274.41219      277.19502      20659374     
        88   0             -7938966.1      2.2105945      3.2702212      1.7669346      1.5946278      3.0244394      15.010667     -11.82009       271.5991       274.41219      277.19502      20659374     
        89   0             -7938966.1      2.211944       3.2714703      1.7683699      1.5959917      3.0244135      15.010679     -11.820266      271.5991       274.41219      277.19502      20659374     
        90   0             -7938966.1      2.2131253      3.2725647      1.7696583      1.5971529      3.0244167      15.010641     -11.82045       271.5991       274.41219      277.19502      20659374     
        91   0             -7938966.1      2.2136515      3.273045       1.7702366      1.5976731      3.0244037      15.010603     -11.820571      271.5991       274.41219      277.19502      20659374     
        92   0             -7938966.1      2.2133719      3.2727636      1.7699308      1.5974212      3.0244005      15.010604     -11.820638      271.5991       274.41219      277.19502      20659374     
        93   0             -7938966.1      2.2122881      3.2716911      1.7687906      1.5963827      3.0244706      15.010584     -11.820675      271.5991       274.41219      277.19502      20659374     
        94   0             -7938966.1      2.2105274      3.2699002      1.7669731      1.5947088      3.0245249      15.010613     -11.820729      271.5991       274.41219      277.19502      20659374     
        95   0             -7938966.1      2.2085078      3.2678958      1.7649486      1.5926791      3.0244959      15.01057      -11.820773      271.5991       274.41219      277.19502      20659374     
        96   0             -7938966.1      2.2068006      3.2661979      1.7632491      1.5909547      3.0244459      15.010584     -11.820834      271.5991       274.41219      277.19502      20659374     
        97   0             -7938966.1      2.2057677      3.2651785      1.7622471      1.5898774      3.0244847      15.010629     -11.820886      271.5991       274.41219      277.19502      20659374     
        98   0             -7938966.1      2.205448       3.2647858      1.7619478      1.5896103      3.0245424      15.010707     -11.820924      271.5991       274.41219      277.19502      20659374     
        99   0             -7938966.1      2.2056715      3.2649167      1.7621313      1.5899665      3.024567       15.010689     -11.82098       271.5991       274.41219      277.19502      20659374     
       100   0             -7938966.1      2.2064197      3.2656145      1.7629117      1.5907329      3.0245612      15.010702     -11.821055      271.5991       274.41219      277.19502      20659374     
       101   0             -7938966.1      2.2072699      3.2663946      1.7637804      1.5916347      3.0245039      15.010737     -11.821143      271.5991       274.41219      277.19502      20659374     
       102   0             -7938966.1      2.2080092      3.2670507      1.7645341      1.5924428      3.0244405      15.01072      -11.821196      271.5991       274.41219      277.19502      20659374     
Loop time of 72.9057 on 6 procs for 100 steps with 1837080 atoms

99.4% CPU use with 6 MPI tasks x 1 OpenMP threads

Minimization stats:
  Stopping criterion = max iterations
  Energy initial, next-to-last, final = 
     -7938966.05398843  -7938966.05501198  -7938966.05501217
  Force two-norm initial, final = 0.12332679 0.0027187501
  Force max component initial, final = 0.00039711395 0.00017127231
  Final line search alpha, max atom move = 1 0.00017127231
  Iterations, force evaluations = 100 200

MPI task timing breakdown:
Section |  min time  |  avg time  |  max time  |%varavg| %total
---------------------------------------------------------------
Pair    | 70.395     | 70.724     | 70.906     |   1.9 | 97.01
Neigh   | 0          | 0          | 0          |   0.0 |  0.00
Comm    | 0.50909    | 0.69214    | 1.0219     |  19.4 |  0.95
Output  | 0.13455    | 0.13859    | 0.14381    |   0.8 |  0.19
Modify  | 0          | 0          | 0          |   0.0 |  0.00
Other   |            | 1.351      |            |       |  1.85

Nlocal:         306180 ave      307005 max      305135 min
Histogram: 1 0 0 2 0 0 0 0 2 1
Nghost:         103101 ave      104146 max      102276 min
Histogram: 1 2 0 0 0 0 2 0 0 1
Neighs:    2.05139e+07 ave 2.05836e+07 max 2.04288e+07 min
Histogram: 1 0 0 0 1 1 1 1 0 1

Total # of neighbors = 1.2308368e+08
Ave neighs/atom = 66.999631
Neighbor list builds = 0
Dangerous builds = 0

# Obtain new stress tensor

variable tmp equal pxx
variable pxx1 equal ${tmp}
variable pxx1 equal 3.26705071311897
variable tmp equal pyy
variable pyy1 equal ${tmp}
variable pyy1 equal 1.76453411201588
variable tmp equal pzz
variable pzz1 equal ${tmp}
variable pzz1 equal 1.59244278972444
variable tmp equal pxy
variable pxy1 equal ${tmp}
variable pxy1 equal 3.02444052541105
variable tmp equal pxz
variable pxz1 equal ${tmp}
variable pxz1 equal 15.0107199376553
variable tmp equal pyz
variable pyz1 equal ${tmp}
variable pyz1 equal -11.8211962212084

# Compute elastic constant from pressure tensor

variable C1neg equal ${d1}
variable C1neg equal 328.114190349418
variable C2neg equal ${d2}
variable C2neg equal 177.491489286444
variable C3neg equal ${d3}
variable C3neg equal 158.037827082081
variable C4neg equal ${d4}
variable C4neg equal -27.67005262395
variable C5neg equal ${d5}
variable C5neg equal 0.028901433110029
variable C6neg equal ${d6}
variable C6neg equal 0.128949920416011

# Reset box and simulation parameters

clear
OMP_NUM_THREADS environment is not set. Defaulting to 1 thread. (src/comm.cpp:98)
  using 1 OpenMP thread(s) per MPI task
box tilt large

The 'box' command has been removed and will be ignored

read_restart restart.equil
Reading restart file ...
  restart file = 2 Aug 2023, LAMMPS = 2 Aug 2023
  restoring atom style atomic from restart
  triclinic box = (0.13452133 0.13679649 0.13975895) to (271.73389 274.54898 277.33478) with tilt (0 0 0)
  1 by 2 by 3 MPI processor grid
  pair style eam/alloy stores no restart info
  1837080 atoms
  read_restart CPU = 0.111 seconds
include potential.mod
# NOTE: This script can be modified for different pair styles
# See in.elastic for more info.

# Choose potential
pair_style	eam/alloy
pair_coeff * * CoCrNi.lammps.eam Ni Co Cr

# Setup neighbor style
neighbor 1.0 nsq
neigh_modify once no every 1 delay 0 check yes

# Setup minimization style
min_style	     cg
min_modify	     dmax ${dmax} line quadratic
min_modify	     dmax 0.01 line quadratic

# Setup output
thermo		1
thermo_style custom step temp pe press pxx pyy pzz pxy pxz pyz lx ly lz vol
thermo_modify norm no

# Positive deformation

variable delta equal ${up}*${len0}
variable delta equal 1e-06*${len0}
variable delta equal 1e-06*271.599372576292
variable deltaxy equal ${up}*xy
variable deltaxy equal 1e-06*xy
variable deltaxz equal ${up}*xz
variable deltaxz equal 1e-06*xz
variable deltayz equal ${up}*yz
variable deltayz equal 1e-06*yz
if "${dir} == 1" then    "change_box all x delta 0 ${delta} xy delta ${deltaxy} xz delta ${deltaxz} remap units box"
change_box all x delta 0 ${delta} xy delta ${deltaxy} xz delta ${deltaxz} remap units box
change_box all x delta 0 0.000271599372576292 xy delta ${deltaxy} xz delta ${deltaxz} remap units box
change_box all x delta 0 0.000271599372576292 xy delta 0 xz delta ${deltaxz} remap units box
change_box all x delta 0 0.000271599372576292 xy delta 0 xz delta 0 remap units box
Changing box ...
  triclinic box = (0.13452133 0.13679649 0.13975895) to (271.73417 274.54898 277.33478) with tilt (0 0 0)
  triclinic box = (0.13452133 0.13679649 0.13975895) to (271.73417 274.54898 277.33478) with tilt (0 0 0)
  triclinic box = (0.13452133 0.13679649 0.13975895) to (271.73417 274.54898 277.33478) with tilt (0 0 0)
if "${dir} == 2" then    "change_box all y delta 0 ${delta} yz delta ${deltayz} remap units box"
if "${dir} == 3" then    "change_box all z delta 0 ${delta} remap units box"
if "${dir} == 4" then    "change_box all yz delta ${delta} remap units box"
if "${dir} == 5" then    "change_box all xz delta ${delta} remap units box"
if "${dir} == 6" then    "change_box all xy delta ${delta} remap units box"

# Relax atoms positions

minimize ${etol} ${ftol} ${maxiter} ${maxeval}
minimize 0 ${ftol} ${maxiter} ${maxeval}
minimize 0 1e-10 ${maxiter} ${maxeval}
minimize 0 1e-10 100 ${maxeval}
minimize 0 1e-10 100 1000
Neighbor list info ...
  update: every = 1 steps, delay = 0 steps, check = yes
  max neighbors/atom: 2000, page size: 100000
  master list distance cutoff = 6.88
  ghost atom cutoff = 6.88
  1 neighbor lists, perpetual/occasional/extra = 1 0 0
  (1) pair eam/alloy, perpetual
      attributes: half, newton on
      pair build: half/nsq/newton
      stencil: none
      bin: none
Per MPI rank memory allocation (min/avg/max) = 182.5 | 182.8 | 183 Mbytes
   Step          Temp          PotEng         Press           Pxx            Pyy            Pzz            Pxy            Pxz            Pyz             Lx             Ly             Lz           Volume    
         2   0             -7938966.1     -2.1077225     -3.2817883     -1.6257236     -1.4156556      3.0238302      15.01106      -11.282445      271.59964      274.41219      277.19502      20659415     
         3   0             -7938966.1     -1.9899939     -3.1257333     -1.5262126     -1.3180359      3.0230019      15.010586     -11.282785      271.59964      274.41219      277.19502      20659415     
         4   0             -7938966.1     -1.9238604     -3.0355303     -1.4730936     -1.2629571      3.0232081      15.010495     -11.280661      271.59964      274.41219      277.19502      20659415     
         5   0             -7938966.1     -1.8941924     -2.9944573     -1.4499247     -1.2381954      3.0228817      15.010381     -11.278288      271.59964      274.41219      277.19502      20659415     
         6   0             -7938966.1     -1.8731354     -2.9667467     -1.4328676     -1.2197918      3.0227144      15.010418     -11.275871      271.59964      274.41219      277.19502      20659415     
         7   0             -7938966.1     -1.8545832     -2.9430605     -1.4176329     -1.2030561      3.0224681      15.010469     -11.27346       271.59964      274.41219      277.19502      20659415     
         8   0             -7938966.1     -1.838842      -2.9226712     -1.4051356     -1.1887191      3.0223258      15.010338     -11.270912      271.59964      274.41219      277.19502      20659415     
         9   0             -7938966.1     -1.8273144     -2.9073256     -1.3965373     -1.1780802      3.0221661      15.010244     -11.268312      271.59964      274.41219      277.19502      20659415     
        10   0             -7938966.1     -1.8199787     -2.8975266     -1.3912034     -1.1712061      3.0219652      15.010204     -11.26609       271.59964      274.41219      277.19502      20659415     
        11   0             -7938966.1     -1.8168295     -2.8933294     -1.3891623     -1.1679968      3.0218745      15.010281     -11.264544      271.59964      274.41219      277.19502      20659415     
        12   0             -7938966.1     -1.8179762     -2.8948408     -1.3904431     -1.1686446      3.0218659      15.010351     -11.263903      271.59964      274.41219      277.19502      20659415     
        13   0             -7938966.1     -1.8221719     -2.9000791     -1.3940853     -1.1723514      3.0219151      15.010423     -11.264018      271.59964      274.41219      277.19502      20659415     
        14   0             -7938966.1     -1.8272283     -2.9066478     -1.3980413     -1.1769958      3.0219802      15.010387     -11.264718      271.59964      274.41219      277.19502      20659415     
        15   0             -7938966.1     -1.8318779     -2.9129637     -1.4014524     -1.1812176      3.0219242      15.010302     -11.265682      271.59964      274.41219      277.19502      20659415     
        16   0             -7938966.1     -1.8356711     -2.918207      -1.4042267     -1.1845796      3.0220221      15.010227     -11.266682      271.59964      274.41219      277.19502      20659415     
        17   0             -7938966.1     -1.8386391     -2.9221517     -1.4063618     -1.1874039      3.0221416      15.010171     -11.267585      271.59964      274.41219      277.19502      20659415     
        18   0             -7938966.1     -1.8411183     -2.925299      -1.4082069     -1.1898491      3.0221675      15.010286     -11.268213      271.59964      274.41219      277.19502      20659415     
        19   0             -7938966.1     -1.8433328     -2.9279132     -1.4100832     -1.192002       3.0222675      15.010459     -11.268649      271.59964      274.41219      277.19502      20659415     
        20   0             -7938966.1     -1.8454748     -2.9303408     -1.4120684     -1.1940153      3.0224402      15.01063      -11.268835      271.59964      274.41219      277.19502      20659415     
        21   0             -7938966.1     -1.8476016     -2.9323898     -1.414249      -1.1961662      3.0227126      15.010909     -11.268852      271.59964      274.41219      277.19502      20659415     
        22   0             -7938966.1     -1.8490989     -2.9337807     -1.4157543     -1.1977616      3.0229545      15.011275     -11.268729      271.59964      274.41219      277.19502      20659415     
        23   0             -7938966.1     -1.8496811     -2.9342137     -1.4163962     -1.1984335      3.0231517      15.011507     -11.268681      271.59964      274.41219      277.19502      20659415     
        24   0             -7938966.1     -1.8490043     -2.933465      -1.4158357     -1.197712       3.0233023      15.0117       -11.268566      271.59964      274.41219      277.19502      20659415     
        25   0             -7938966.1     -1.8471305     -2.9315006     -1.4140794     -1.1958114      3.0234613      15.01178      -11.268526      271.59964      274.41219      277.19502      20659415     
        26   0             -7938966.1     -1.8445986     -2.929049      -1.411638      -1.1931088      3.023527       15.011722     -11.268387      271.59964      274.41219      277.19502      20659415     
        27   0             -7938966.1     -1.8419304     -2.9268032     -1.4089742     -1.1900136      3.0233692      15.01165      -11.26843       271.59964      274.41219      277.19502      20659415     
        28   0             -7938966.1     -1.8397888     -2.9248748     -1.4068        -1.1876915      3.0234063      15.011683     -11.268501      271.59964      274.41219      277.19502      20659415     
        29   0             -7938966.1     -1.8382862     -2.9237188     -1.4050815     -1.1860584      3.0235612      15.01166      -11.2686        271.59964      274.41219      277.19502      20659415     
        30   0             -7938966.1     -1.8375031     -2.923207      -1.4040893     -1.1852131      3.0235837      15.011661     -11.268705      271.59964      274.41219      277.19502      20659415     
        31   0             -7938966.1     -1.8371206     -2.9230052     -1.4035047     -1.184852       3.023603       15.011824     -11.268846      271.59964      274.41219      277.19502      20659415     
        32   0             -7938966.1     -1.8368263     -2.9229643     -1.403029      -1.1844856      3.0236146      15.011894     -11.268976      271.59964      274.41219      277.19502      20659415     
        33   0             -7938966.1     -1.8364851     -2.9227595     -1.4025642     -1.1841317      3.02386        15.011825     -11.269193      271.59964      274.41219      277.19502      20659415     
        34   0             -7938966.1     -1.8360917     -2.9225163     -1.4018798     -1.183879       3.0240038      15.011777     -11.269311      271.59964      274.41219      277.19502      20659415     
        35   0             -7938966.1     -1.835971      -2.9225348     -1.4015542     -1.1838241      3.0239652      15.011623     -11.26948       271.59964      274.41219      277.19502      20659415     
        36   0             -7938966.1     -1.8366923     -2.9234418     -1.4020111     -1.184624       3.0238532      15.011475     -11.269553      271.59964      274.41219      277.19502      20659415     
        37   0             -7938966.1     -1.8382538     -2.9250983     -1.4033864     -1.1862768      3.0238167      15.011365     -11.269629      271.59964      274.41219      277.19502      20659415     
        38   0             -7938966.1     -1.8406573     -2.9275413     -1.4057341     -1.1886966      3.0237836      15.011203     -11.269535      271.59964      274.41219      277.19502      20659415     
        39   0             -7938966.1     -1.8431664     -2.9301442     -1.4080679     -1.1912872      3.0236983      15.011086     -11.26936       271.59964      274.41219      277.19502      20659415     
        40   0             -7938966.1     -1.8453812     -2.9323051     -1.4103768     -1.1934618      3.0236519      15.011051     -11.269172      271.59964      274.41219      277.19502      20659415     
        41   0             -7938966.1     -1.8467277     -2.9335394     -1.4119535     -1.1946901      3.023684       15.011084     -11.269053      271.59964      274.41219      277.19502      20659415     
        42   0             -7938966.1     -1.8469956     -2.9336447     -1.4124045     -1.1949378      3.0238427      15.011209     -11.268932      271.59964      274.41219      277.19502      20659415     
        43   0             -7938966.1     -1.8464183     -2.9328984     -1.4119188     -1.1944376      3.0239713      15.011178     -11.26888       271.59964      274.41219      277.19502      20659415     
        44   0             -7938966.1     -1.845134      -2.9314752     -1.4105525     -1.1933741      3.0240889      15.011118     -11.268868      271.59964      274.41219      277.19502      20659415     
        45   0             -7938966.1     -1.8437604     -2.930107      -1.4091185     -1.1920557      3.0241131      15.011052     -11.268976      271.59964      274.41219      277.19502      20659415     
        46   0             -7938966.1     -1.8425958     -2.928996      -1.4078769     -1.1909145      3.0241407      15.011036     -11.26914       271.59964      274.41219      277.19502      20659415     
        47   0             -7938966.1     -1.8415324     -2.9280456     -1.4066915     -1.1898602      3.024216       15.01102      -11.269242      271.59964      274.41219      277.19502      20659415     
        48   0             -7938966.1     -1.840658      -2.9271571     -1.4057143     -1.1891026      3.024295       15.010949     -11.269291      271.59964      274.41219      277.19502      20659415     
        49   0             -7938966.1     -1.8397423     -2.9262706     -1.4047558     -1.1882005      3.0244008      15.010933     -11.269271      271.59964      274.41219      277.19502      20659415     
        50   0             -7938966.1     -1.8386531     -2.92536       -1.4036311     -1.1869683      3.024482       15.010934     -11.269168      271.59964      274.41219      277.19502      20659415     
        51   0             -7938966.1     -1.8376833     -2.9245504     -1.4026739     -1.1858258      3.0244927      15.01095      -11.26909       271.59964      274.41219      277.19502      20659415     
        52   0             -7938966.1     -1.8369922     -2.9238075     -1.4020542     -1.1851149      3.0245142      15.010998     -11.269084      271.59964      274.41219      277.19502      20659415     
        53   0             -7938966.1     -1.8368183     -2.9236545     -1.4020312     -1.1847692      3.0246068      15.011077     -11.268983      271.59964      274.41219      277.19502      20659415     
        54   0             -7938966.1     -1.8372804     -2.9240538     -1.4025482     -1.1852393      3.0246813      15.01138      -11.268933      271.59964      274.41219      277.19502      20659415     
        55   0             -7938966.1     -1.8383836     -2.9250715     -1.40364       -1.1864394      3.0248396      15.011572     -11.268952      271.59964      274.41219      277.19502      20659415     
        56   0             -7938966.1     -1.8400261     -2.9265925     -1.4053885     -1.1880972      3.0250691      15.011705     -11.269065      271.59964      274.41219      277.19502      20659415     
        57   0             -7938966.1     -1.8419374     -2.9283936     -1.4073973     -1.1900213      3.0252968      15.011921     -11.268932      271.59964      274.41219      277.19502      20659415     
        58   0             -7938966.1     -1.8436886     -2.9301738     -1.4091563     -1.1917357      3.0254661      15.012127     -11.268683      271.59964      274.41219      277.19502      20659415     
        59   0             -7938966.1     -1.8451849     -2.9315649     -1.4108413     -1.1931485      3.0255882      15.012324     -11.268525      271.59964      274.41219      277.19502      20659415     
        60   0             -7938966.1     -1.8462237     -2.9325072     -1.412065      -1.1940991      3.0257725      15.012554     -11.268305      271.59964      274.41219      277.19502      20659415     
        61   0             -7938966.1     -1.8466623     -2.9328903     -1.4126059     -1.1944906      3.0259312      15.012844     -11.268162      271.59964      274.41219      277.19502      20659415     
        62   0             -7938966.1     -1.8464526     -2.9325494     -1.4124055     -1.1944028      3.0260805      15.01306      -11.268071      271.59964      274.41219      277.19502      20659415     
        63   0             -7938966.1     -1.84575       -2.9317264     -1.4116668     -1.1938568      3.02615        15.013131     -11.268129      271.59964      274.41219      277.19502      20659415     
        64   0             -7938966.1     -1.8445704     -2.9304142     -1.4105518     -1.1927453      3.0262798      15.013248     -11.268227      271.59964      274.41219      277.19502      20659415     
        65   0             -7938966.1     -1.8431024     -2.9287791     -1.4092173     -1.1913107      3.0262326      15.013278     -11.268295      271.59964      274.41219      277.19502      20659415     
        66   0             -7938966.1     -1.8416997     -2.9272917     -1.407859      -1.1899484      3.0260686      15.013367     -11.268278      271.59964      274.41219      277.19502      20659415     
        67   0             -7938966.1     -1.84052       -2.9261331     -1.4067246     -1.1887024      3.0258384      15.013387     -11.268233      271.59964      274.41219      277.19502      20659415     
        68   0             -7938966.1     -1.8397862     -2.9253082     -1.4061247     -1.1879258      3.025692       15.013309     -11.268166      271.59964      274.41219      277.19502      20659415     
        69   0             -7938966.1     -1.8392814     -2.9247142     -1.4057725     -1.1873575      3.0255996      15.013297     -11.268066      271.59964      274.41219      277.19502      20659415     
        70   0             -7938966.1     -1.839116      -2.9245193     -1.405754      -1.1870747      3.0254527      15.01324      -11.268024      271.59964      274.41219      277.19502      20659415     
        71   0             -7938966.1     -1.839252      -2.924725      -1.4059083     -1.1871228      3.0252345      15.013197     -11.268128      271.59964      274.41219      277.19502      20659415     
        72   0             -7938966.1     -1.8395306     -2.9250777     -1.4061415     -1.1873725      3.025081       15.013201     -11.268196      271.59964      274.41219      277.19502      20659415     
        73   0             -7938966.1     -1.8401919     -2.925784      -1.4067686     -1.1880229      3.0249701      15.01321      -11.268257      271.59964      274.41219      277.19502      20659415     
        74   0             -7938966.1     -1.8413622     -2.927108      -1.4078596     -1.1891191      3.0248671      15.013085     -11.268337      271.59964      274.41219      277.19502      20659415     
        75   0             -7938966.1     -1.8430597     -2.9289424     -1.4093251     -1.1909117      3.0247956      15.01289      -11.268339      271.59964      274.41219      277.19502      20659415     
        76   0             -7938966.1     -1.8453803     -2.9312404     -1.4115353     -1.193365       3.024688       15.012626     -11.268348      271.59964      274.41219      277.19502      20659415     
        77   0             -7938966.1     -1.847882      -2.9337438     -1.4140092     -1.195893       3.0245302      15.012337     -11.268361      271.59964      274.41219      277.19502      20659415     
        78   0             -7938966.1     -1.8500032     -2.9358227     -1.4161906     -1.1979964      3.0244487      15.012052     -11.268265      271.59964      274.41219      277.19502      20659415     
        79   0             -7938966.1     -1.8514888     -2.9373179     -1.4176554     -1.1994933      3.024409       15.011789     -11.26818       271.59964      274.41219      277.19502      20659415     
        80   0             -7938966.1     -1.8519482     -2.9378254     -1.4180484     -1.1999709      3.0244042      15.011588     -11.268234      271.59964      274.41219      277.19502      20659415     
        81   0             -7938966.1     -1.8514383     -2.9373492     -1.4175559     -1.1994096      3.0244392      15.011416     -11.268269      271.59964      274.41219      277.19502      20659415     
        82   0             -7938966.1     -1.8502613     -2.936172      -1.4164069     -1.1982049      3.0243634      15.011281     -11.268281      271.59964      274.41219      277.19502      20659415     
        83   0             -7938966.1     -1.8488987     -2.9348011     -1.4150419     -1.1968531      3.0242101      15.011169     -11.268259      271.59964      274.41219      277.19502      20659415     
        84   0             -7938966.1     -1.8477379     -2.9335952     -1.4139177     -1.1957009      3.0240849      15.011008     -11.268298      271.59964      274.41219      277.19502      20659415     
        85   0             -7938966.1     -1.8467006     -2.9325294     -1.4128735     -1.1946989      3.0240265      15.010952     -11.268323      271.59964      274.41219      277.19502      20659415     
        86   0             -7938966.1     -1.8456605     -2.9315753     -1.4116873     -1.193719       3.0240822      15.010823     -11.268519      271.59964      274.41219      277.19502      20659415     
        87   0             -7938966.1     -1.8444599     -2.9304979     -1.4103038     -1.1925779      3.0241031      15.01072      -11.268689      271.59964      274.41219      277.19502      20659415     
        88   0             -7938966.1     -1.8430019     -2.9291229     -1.4087709     -1.191112       3.0240981      15.010673     -11.268935      271.59964      274.41219      277.19502      20659415     
        89   0             -7938966.1     -1.8415976     -2.9278455     -1.4072601     -1.1896872      3.0240769      15.010692     -11.26915       271.59964      274.41219      277.19502      20659415     
        90   0             -7938966.1     -1.8404325     -2.9268384     -1.4059377     -1.1885213      3.024085       15.010661     -11.269391      271.59964      274.41219      277.19502      20659415     
        91   0             -7938966.1     -1.839952      -2.9265074     -1.405335      -1.1880136      3.0240741      15.010627     -11.269579      271.59964      274.41219      277.19502      20659415     
        92   0             -7938966.1     -1.8402545     -2.9269288     -1.4055804     -1.1882544      3.0240705      15.010626     -11.269716      271.59964      274.41219      277.19502      20659415     
        93   0             -7938966.1     -1.8413202     -2.9280903     -1.4066197     -1.1892506      3.0241355      15.010601     -11.269817      271.59964      274.41219      277.19502      20659415     
        94   0             -7938966.1     -1.8430209     -2.9298998     -1.4083077     -1.1908553      3.0241804      15.010621     -11.269925      271.59964      274.41219      277.19502      20659415     
        95   0             -7938966.1     -1.8449477     -2.9318587     -1.4101888     -1.1927957      3.0241407      15.010567     -11.270012      271.59964      274.41219      277.19502      20659415     
        96   0             -7938966.1     -1.8465609     -2.9334888     -1.4117642     -1.1944299      3.0240845      15.010571     -11.2701        271.59964      274.41219      277.19502      20659415     
        97   0             -7938966.1     -1.8475277     -2.9344506     -1.4126903     -1.1954421      3.0241258      15.010609     -11.27016       271.59964      274.41219      277.19502      20659415     
        98   0             -7938966.1     -1.8478241     -2.9348079     -1.4129738     -1.1956907      3.0241897      15.010683     -11.270191      271.59964      274.41219      277.19502      20659415     
        99   0             -7938966.1     -1.847618      -2.9346646     -1.4128288     -1.1953607      3.0242176      15.010665     -11.270226      271.59964      274.41219      277.19502      20659415     
       100   0             -7938966.1     -1.8469189     -2.933976      -1.4121279     -1.1946526      3.0242116      15.01068      -11.270273      271.59964      274.41219      277.19502      20659415     
       101   0             -7938966.1     -1.8461289     -2.9332132     -1.4113543     -1.1938192      3.0241545      15.010716     -11.270322      271.59964      274.41219      277.19502      20659415     
       102   0             -7938966.1     -1.8454382     -2.932559      -1.4106882     -1.1930675      3.0240912      15.010701     -11.270325      271.59964      274.41219      277.19502      20659415     
Loop time of 74.0483 on 6 procs for 100 steps with 1837080 atoms

98.9% CPU use with 6 MPI tasks x 1 OpenMP threads

Minimization stats:
  Stopping criterion = max iterations
  Energy initial, next-to-last, final = 
     -7938966.05398821  -7938966.05501633  -7938966.05501663
  Force two-norm initial, final = 0.12354005 0.0027315182
  Force max component initial, final = 0.00039519384 0.00017304592
  Final line search alpha, max atom move = 1 0.00017304592
  Iterations, force evaluations = 100 200

MPI task timing breakdown:
Section |  min time  |  avg time  |  max time  |%varavg| %total
---------------------------------------------------------------
Pair    | 70.777     | 71.36      | 71.788     |   3.7 | 96.37
Neigh   | 0          | 0          | 0          |   0.0 |  0.00
Comm    | 0.69892    | 1.1318     | 1.7183     |  29.8 |  1.53
Output  | 0.12991    | 0.13101    | 0.13514    |   0.5 |  0.18
Modify  | 0          | 0          | 0          |   0.0 |  0.00
Other   |            | 1.425      |            |       |  1.92

Nlocal:         306180 ave      307005 max      305135 min
Histogram: 1 0 0 2 0 0 0 0 2 1
Nghost:         103101 ave      104146 max      102276 min
Histogram: 1 2 0 0 0 0 2 0 0 1
Neighs:    2.05139e+07 ave 2.05836e+07 max 2.04288e+07 min
Histogram: 1 0 0 0 1 1 1 1 0 1

Total # of neighbors = 1.2308368e+08
Ave neighs/atom = 66.999631
Neighbor list builds = 0
Dangerous builds = 0

# Obtain new stress tensor

variable tmp equal pe
variable e1 equal ${tmp}
variable e1 equal -7938966.05501663
variable tmp equal press
variable p1 equal ${tmp}
variable p1 equal -1.84543824786103
variable tmp equal pxx
variable pxx1 equal ${tmp}
variable pxx1 equal -2.93255900318001
variable tmp equal pyy
variable pyy1 equal ${tmp}
variable pyy1 equal -1.41068820829732
variable tmp equal pzz
variable pzz1 equal ${tmp}
variable pzz1 equal -1.19306753210575
variable tmp equal pxy
variable pxy1 equal ${tmp}
variable pxy1 equal 3.02409123578486
variable tmp equal pxz
variable pxz1 equal ${tmp}
variable pxz1 equal 15.0107013274898
variable tmp equal pyz
variable pyz1 equal ${tmp}
variable pyz1 equal -11.270325282215

# Compute elastic constant from pressure tensor

variable C1pos equal ${d1}
variable C1pos equal 291.84678128048
variable C2pos equal ${d2}
variable C2pos equal 140.030742744876
variable C3pos equal ${d3}
variable C3pos equal 120.513205100938
variable C4pos equal ${d4}
variable C4pos equal -27.41704127539
variable C5pos equal ${d5}
variable C5pos equal -0.0270404165599203
variable C6pos equal ${d6}
variable C6pos equal -0.094020957797003

# Combine positive and negative

variable C1${dir} equal 0.5*(${C1neg}+${C1pos})
variable C11 equal 0.5*(${C1neg}+${C1pos})
variable C11 equal 0.5*(328.114190349418+${C1pos})
variable C11 equal 0.5*(328.114190349418+291.84678128048)
variable C2${dir} equal 0.5*(${C2neg}+${C2pos})
variable C21 equal 0.5*(${C2neg}+${C2pos})
variable C21 equal 0.5*(177.491489286444+${C2pos})
variable C21 equal 0.5*(177.491489286444+140.030742744876)
variable C3${dir} equal 0.5*(${C3neg}+${C3pos})
variable C31 equal 0.5*(${C3neg}+${C3pos})
variable C31 equal 0.5*(158.037827082081+${C3pos})
variable C31 equal 0.5*(158.037827082081+120.513205100938)
variable C4${dir} equal 0.5*(${C4neg}+${C4pos})
variable C41 equal 0.5*(${C4neg}+${C4pos})
variable C41 equal 0.5*(-27.67005262395+${C4pos})
variable C41 equal 0.5*(-27.67005262395+-27.41704127539)
variable C5${dir} equal 0.5*(${C5neg}+${C5pos})
variable C51 equal 0.5*(${C5neg}+${C5pos})
variable C51 equal 0.5*(0.028901433110029+${C5pos})
variable C51 equal 0.5*(0.028901433110029+-0.0270404165599203)
variable C6${dir} equal 0.5*(${C6neg}+${C6pos})
variable C61 equal 0.5*(${C6neg}+${C6pos})
variable C61 equal 0.5*(0.128949920416011+${C6pos})
variable C61 equal 0.5*(0.128949920416011+-0.094020957797003)

# Delete dir to make sure it is not reused

variable dir delete

# uyy Perturbation

variable dir equal 2
include displace.mod
# NOTE: This script should not need to be
# modified. See in.elastic for more info.
#
# Find which reference length to use

if "${dir} == 1" then    "variable len0 equal ${lx0}"
if "${dir} == 2" then    "variable len0 equal ${ly0}"
variable len0 equal ${ly0}
variable len0 equal 274.412186776684
if "${dir} == 3" then    "variable len0 equal ${lz0}"
if "${dir} == 4" then    "variable len0 equal ${lz0}"
if "${dir} == 5" then    "variable len0 equal ${lz0}"
if "${dir} == 6" then    "variable len0 equal ${ly0}"

# Reset box and simulation parameters

clear
OMP_NUM_THREADS environment is not set. Defaulting to 1 thread. (src/comm.cpp:98)
  using 1 OpenMP thread(s) per MPI task
box tilt large

The 'box' command has been removed and will be ignored

read_restart restart.equil
Reading restart file ...
  restart file = 2 Aug 2023, LAMMPS = 2 Aug 2023
  restoring atom style atomic from restart
  triclinic box = (0.13452133 0.13679649 0.13975895) to (271.73389 274.54898 277.33478) with tilt (0 0 0)
  1 by 2 by 3 MPI processor grid
  pair style eam/alloy stores no restart info
  1837080 atoms
  read_restart CPU = 0.116 seconds
include potential.mod
# NOTE: This script can be modified for different pair styles
# See in.elastic for more info.

# Choose potential
pair_style	eam/alloy
pair_coeff * * CoCrNi.lammps.eam Ni Co Cr

# Setup neighbor style
neighbor 1.0 nsq
neigh_modify once no every 1 delay 0 check yes

# Setup minimization style
min_style	     cg
min_modify	     dmax ${dmax} line quadratic
min_modify	     dmax 0.01 line quadratic

# Setup output
thermo		1
thermo_style custom step temp pe press pxx pyy pzz pxy pxz pyz lx ly lz vol
thermo_modify norm no

# Negative deformation

variable delta equal -${up}*${len0}
variable delta equal -1e-06*${len0}
variable delta equal -1e-06*274.412186776684
variable deltaxy equal -${up}*xy
variable deltaxy equal -1e-06*xy
variable deltaxz equal -${up}*xz
variable deltaxz equal -1e-06*xz
variable deltayz equal -${up}*yz
variable deltayz equal -1e-06*yz
if "${dir} == 1" then    "change_box all x delta 0 ${delta} xy delta ${deltaxy} xz delta ${deltaxz} remap units box"
if "${dir} == 2" then    "change_box all y delta 0 ${delta} yz delta ${deltayz} remap units box"
change_box all y delta 0 ${delta} yz delta ${deltayz} remap units box
change_box all y delta 0 -0.000274412186776684 yz delta ${deltayz} remap units box
change_box all y delta 0 -0.000274412186776684 yz delta -0 remap units box
Changing box ...
  triclinic box = (0.13452133 0.13679649 0.13975895) to (271.73389 274.54871 277.33478) with tilt (0 0 0)
  triclinic box = (0.13452133 0.13679649 0.13975895) to (271.73389 274.54871 277.33478) with tilt (0 0 0)
if "${dir} == 3" then    "change_box all z delta 0 ${delta} remap units box"
if "${dir} == 4" then    "change_box all yz delta ${delta} remap units box"
if "${dir} == 5" then    "change_box all xz delta ${delta} remap units box"
if "${dir} == 6" then    "change_box all xy delta ${delta} remap units box"

# Relax atoms positions

minimize ${etol} ${ftol} ${maxiter} ${maxeval}
minimize 0 ${ftol} ${maxiter} ${maxeval}
minimize 0 1e-10 ${maxiter} ${maxeval}
minimize 0 1e-10 100 ${maxeval}
minimize 0 1e-10 100 1000
Neighbor list info ...
  update: every = 1 steps, delay = 0 steps, check = yes
  max neighbors/atom: 2000, page size: 100000
  master list distance cutoff = 6.88
  ghost atom cutoff = 6.88
  1 neighbor lists, perpetual/occasional/extra = 1 0 0
  (1) pair eam/alloy, perpetual
      attributes: half, newton on
      pair build: half/nsq/newton
      stencil: none
      bin: none
Per MPI rank memory allocation (min/avg/max) = 182.5 | 182.8 | 183 Mbytes
   Step          Temp          PotEng         Press           Pxx            Pyy            Pzz            Pxy            Pxz            Pyz             Lx             Ly             Lz           Volume    
         2   0             -7938966.1      2.1002219      1.600605       3.2576311      1.4424296      3.0239695      15.010934     -11.282289      271.59937      274.41191      277.19502      20659374     
         3   0             -7938966.1      2.1481131      1.6673661      3.2679323      1.509041       3.0231608      15.010463     -11.282616      271.59937      274.41191      277.19502      20659374     
         4   0             -7938966.1      2.1753348      1.7070157      3.2706526      1.5483362      3.023375       15.010356     -11.28053       271.59937      274.41191      277.19502      20659374     
         5   0             -7938966.1      2.18768        1.7258576      3.2716886      1.5654939      3.0230682      15.010244     -11.2782        271.59937      274.41191      277.19502      20659374     
         6   0             -7938966.1      2.1968923      1.7392611      3.2744688      1.576947       3.0229208      15.010282     -11.275829      271.59937      274.41191      277.19502      20659374     
         7   0             -7938966.1      2.2053525      1.7512134      3.2779072      1.5869371      3.0226934      15.010337     -11.273445      271.59937      274.41191      277.19502      20659374     
         8   0             -7938966.1      2.2130574      1.762299       3.2808841      1.5959892      3.0225705      15.010223     -11.270876      271.59937      274.41191      277.19502      20659374     
         9   0             -7938966.1      2.2193907      1.7716282      3.2831186      1.6034254      3.0224337      15.010156     -11.268197      271.59937      274.41191      277.19502      20659374     
        10   0             -7938966.1      2.2240645      1.778462       3.2851694      1.608562       3.0222584      15.010148     -11.265871      271.59937      274.41191      277.19502      20659374     
        11   0             -7938966.1      2.2266577      1.782196       3.2865928      1.6111843      3.0221952      15.01026      -11.26425       271.59937      274.41191      277.19502      20659374     
        12   0             -7938966.1      2.2268111      1.7822522      3.2869273      1.6112537      3.0222135      15.010368     -11.263592      271.59937      274.41191      277.19502      20659374     
        13   0             -7938966.1      2.2250722      1.7798048      3.2862543      1.6091574      3.0222828      15.010467     -11.263742      271.59937      274.41191      277.19502      20659374     
        14   0             -7938966.1      2.2226716      1.7762595      3.2855508      1.6062045      3.0223544      15.010447     -11.26451       271.59937      274.41191      277.19502      20659374     
        15   0             -7938966.1      2.2203399      1.7726195      3.2850483      1.6033518      3.0222886      15.010362     -11.265556      271.59937      274.41191      277.19502      20659374     
        16   0             -7938966.1      2.2183596      1.7694506      3.284554       1.6010742      3.0223658      15.01027      -11.266643      271.59937      274.41191      277.19502      20659374     
        17   0             -7938966.1      2.2166709      1.7669249      3.28399        1.5990977      3.0224568      15.010184     -11.267626      271.59937      274.41191      277.19502      20659374     
        18   0             -7938966.1      2.2148774      1.7645257      3.2829816      1.5971249      3.0224543      15.010263     -11.268316      271.59937      274.41191      277.19502      20659374     
        19   0             -7938966.1      2.2127824      1.7620355      3.2812807      1.5950309      3.0225372      15.010401     -11.268789      271.59937      274.41191      277.19502      20659374     
        20   0             -7938966.1      2.2103309      1.7592388      3.2789552      1.5927987      3.0227057      15.010538     -11.268983      271.59937      274.41191      277.19502      20659374     
        21   0             -7938966.1      2.2076056      1.7564842      3.2760657      1.5902668      3.0229864      15.010799     -11.268985      271.59937      274.41191      277.19502      20659374     
        22   0             -7938966.1      2.205369       1.7542346      3.2736711      1.5882013      3.0232418      15.011167     -11.268831      271.59937      274.41191      277.19502      20659374     
        23   0             -7938966.1      2.2040696      1.7529837      3.2721679      1.5870573      3.0234515      15.01141      -11.26875       271.59937      274.41191      277.19502      20659374     
        24   0             -7938966.1      2.2042169      1.753143       3.272081       1.5874267      3.0236099      15.01162      -11.26861       271.59937      274.41191      277.19502      20659374     
        25   0             -7938966.1      2.205826       1.754828       3.2734874      1.5891627      3.0237783      15.011724     -11.268547      271.59937      274.41191      277.19502      20659374     
        26   0             -7938966.1      2.2083496      1.7572958      3.2758642      1.5918889      3.0238557      15.011694     -11.268386      271.59937      274.41191      277.19502      20659374     
        27   0             -7938966.1      2.2111968      1.7597727      3.2786695      1.5951483      3.023705       15.011643     -11.268405      271.59937      274.41191      277.19502      20659374     
        28   0             -7938966.1      2.2136284      1.7620486      3.2811181      1.5977185      3.0237465      15.011683     -11.268451      271.59937      274.41191      277.19502      20659374     
        29   0             -7938966.1      2.2154412      1.7635623      3.2831473      1.599614       3.0238991      15.011658     -11.268521      271.59937      274.41191      277.19502      20659374     
        30   0             -7938966.1      2.2164896      1.7643748      3.2844129      1.600681       3.023911       15.011656     -11.268592      271.59937      274.41191      277.19502      20659374     
        31   0             -7938966.1      2.2170623      1.7647969      3.2851978      1.6011923      3.0239165      15.011819     -11.268706      271.59937      274.41191      277.19502      20659374     
        32   0             -7938966.1      2.2174977      1.7650022      3.2858284      1.6016624      3.0239172      15.011889     -11.268818      271.59937      274.41191      277.19502      20659374     
        33   0             -7938966.1      2.2179662      1.7653504      3.2864369      1.6021114      3.0241547      15.011813     -11.269024      271.59937      274.41191      277.19502      20659374     
        34   0             -7938966.1      2.2184764      1.7657233      3.2872601      1.602446       3.0242945      15.011752     -11.269142      271.59937      274.41191      277.19502      20659374     
        35   0             -7938966.1      2.2186736      1.7657921      3.2876929      1.6025357      3.0242592      15.011578     -11.26932       271.59937      274.41191      277.19502      20659374     
        36   0             -7938966.1      2.2179497      1.7648796      3.2872696      1.6016998      3.0241524      15.011405     -11.269413      271.59937      274.41191      277.19502      20659374     
        37   0             -7938966.1      2.216286       1.7631014      3.2858346      1.5999219      3.0241182      15.011269     -11.269515      271.59937      274.41191      277.19502      20659374     
        38   0             -7938966.1      2.2136628      1.7604082      3.2833062      1.5972741      3.0240808      15.011094     -11.269454      271.59937      274.41191      277.19502      20659374     
        39   0             -7938966.1      2.2108164      1.7574223      3.2806581      1.5943687      3.02399        15.010975     -11.269319      271.59937      274.41191      277.19502      20659374     
        40   0             -7938966.1      2.2082069      1.7548055      3.2779616      1.5918536      3.0239359      15.010941     -11.269171      271.59937      274.41191      277.19502      20659374     
        41   0             -7938966.1      2.2065247      1.7531803      3.2760415      1.5903522      3.0239545      15.010978     -11.26909       271.59937      274.41191      277.19502      20659374     
        42   0             -7938966.1      2.2060558      1.7528444      3.2753717      1.5899511      3.0241019      15.011116     -11.268993      271.59937      274.41191      277.19502      20659374     
        43   0             -7938966.1      2.2065843      1.7535343      3.2757896      1.5904289      3.0242291      15.011102     -11.268952      271.59937      274.41191      277.19502      20659374     
        44   0             -7938966.1      2.207957       1.7550496      3.2772265      1.5915947      3.0243572      15.01106      -11.268939      271.59937      274.41191      277.19502      20659374     
        45   0             -7938966.1      2.2095227      1.7566228      3.2788366      1.5931086      3.0243983      15.011009     -11.269032      271.59937      274.41191      277.19502      20659374     
        46   0             -7938966.1      2.2109266      1.7579878      3.2803065      1.5944856      3.0244387      15.011014     -11.269181      271.59937      274.41191      277.19502      20659374     
        47   0             -7938966.1      2.2122206      1.7591787      3.2817131      1.5957699      3.024527       15.011018     -11.269273      271.59937      274.41191      277.19502      20659374     
[...]
        61   0             -7938966.1      0.17944208     0.16603386     0.17453173     0.19776064     2.2695569      15.28832      -11.5437        271.59937      274.41219      277.19502      20659394     
        62   0             -7938966.1      0.17966075     0.16635621     0.17477125     0.1978548      2.2697171      15.28855      -11.543634      271.59937      274.41219      277.19502      20659394     
        63   0             -7938966.1      0.18043419     0.16724687     0.17558779     0.19846792     2.2697782      15.288616     -11.543688      271.59937      274.41219      277.19502      20659394     
        64   0             -7938966.1      0.18173201     0.16870097     0.17680489     0.19969016     2.2698896      15.288718     -11.543756      271.59937      274.41219      277.19502      20659394     
        65   0             -7938966.1      0.1833462      0.17052753     0.17825204     0.20125904     2.2698186      15.288726     -11.543777      271.59937      274.41219      277.19502      20659394     
        66   0             -7938966.1      0.18490376     0.17222932     0.17971697     0.202765       2.269625       15.288785     -11.543705      271.59937      274.41219      277.19502      20659394     
        67   0             -7938966.1      0.18623313     0.1735972      0.18095058     0.2041516      2.269363       15.288768     -11.543602      271.59937      274.41219      277.19502      20659394     
        68   0             -7938966.1      0.18709913     0.17460922     0.18163574     0.20505244     2.2691856      15.288648     -11.54348       271.59937      274.41219      277.19502      20659394     
        69   0             -7938966.1      0.18771052     0.17536268     0.18204611     0.20572276     2.2690594      15.288594     -11.543334      271.59937      274.41219      277.19502      20659394     
        70   0             -7938966.1      0.18794827     0.17567793     0.18209021     0.20607667     2.2688788      15.2885       -11.543255      271.59937      274.41219      277.19502      20659394     
        71   0             -7938966.1      0.18784672     0.17554794     0.18193371     0.20605851     2.2686311      15.288426     -11.543332      271.59937      274.41219      277.19502      20659394     
        72   0             -7938966.1      0.18756289     0.17521916     0.18167014     0.20579938     2.2684473      15.288405     -11.543384      271.59937      274.41219      277.19502      20659394     
        73   0             -7938966.1      0.18685979     0.17448964     0.18098614     0.20510357     2.2683068      15.288397     -11.543435      271.59937      274.41219      277.19502      20659394     
        74   0             -7938966.1      0.18560942     0.17309745     0.17980984     0.20392095     2.268179       15.288268     -11.543514      271.59937      274.41219      277.19502      20659394     
        75   0             -7938966.1      0.18378658     0.17113353     0.17822658     0.20199964     2.268093       15.28808      -11.543525      271.59937      274.41219      277.19502      20659394     
        76   0             -7938966.1      0.18129171     0.16863468     0.17586698     0.19937349     2.2679898      15.287832     -11.543556      271.59937      274.41219      277.19502      20659394     
        77   0             -7938966.1      0.1785858      0.16587683     0.17322724     0.19665333     2.2678601      15.287572     -11.543603      271.59937      274.41219      277.19502      20659394     
        78   0             -7938966.1      0.17627391     0.16353607     0.17090019     0.19438546     2.2678281      15.287323     -11.543555      271.59937      274.41219      277.19502      20659394     
        79   0             -7938966.1      0.17465263     0.1618298      0.1693466      0.19278148     2.2678458      15.287099     -11.543524      271.59937      274.41219      277.19502      20659394     
        80   0             -7938966.1      0.17413638     0.16120132     0.16894257     0.19226526     2.2678934      15.286939     -11.543635      271.59937      274.41219      277.19502      20659394     
        81   0             -7938966.1      0.17467422     0.16166439     0.16950138     0.19285689     2.2679682      15.286804     -11.543722      271.59937      274.41219      277.19502      20659394     
        82   0             -7938966.1      0.17596239     0.16293628     0.1707872      0.1941637      2.2679204      15.286702     -11.543774      271.59937      274.41219      277.19502      20659394     
        83   0             -7938966.1      0.17749122     0.16446864     0.17233667     0.19566835     2.2677876      15.286616     -11.543773      271.59937      274.41219      277.19502      20659394     
        84   0             -7938966.1      0.17881811     0.1658391      0.17363975     0.19697548     2.2676812      15.286474     -11.543824      271.59937      274.41219      277.19502      20659394     
        85   0             -7938966.1      0.17997869     0.16702261     0.1748165      0.19809696     2.2676457      15.286433     -11.543852      271.59937      274.41219      277.19502      20659394     
        86   0             -7938966.1      0.18107707     0.16802198     0.17606896     0.19914027     2.2677276      15.286315     -11.544044      271.59937      274.41219      277.19502      20659394     
        87   0             -7938966.1      0.18227355     0.16908236     0.177452       0.2002863      2.2677698      15.286215     -11.544198      271.59937      274.41219      277.19502      20659394     
        88   0             -7938966.1      0.18369768     0.17042227     0.17894619     0.20172459     2.2677659      15.286155     -11.544419      271.59937      274.41219      277.19502      20659394     
        89   0             -7938966.1      0.18508768     0.17170655     0.18042222     0.20313426     2.267717       15.286147     -11.544606      271.59937      274.41219      277.19502      20659394     
        90   0             -7938966.1      0.18626944     0.17277086     0.18172987     0.20430758     2.2676752      15.286081     -11.544815      271.59937      274.41219      277.19502      20659394     
        91   0             -7938966.1      0.18677439     0.17317724     0.18232072     0.20482522     2.2676046      15.286007     -11.544972      271.59937      274.41219      277.19502      20659394     
        92   0             -7938966.1      0.18647776     0.1728115      0.18204416     0.20457761     2.2675445      15.285968     -11.545082      271.59937      274.41219      277.19502      20659394     
        93   0             -7938966.1      0.18538958     0.17166456     0.18095235     0.20355184     2.2675633      15.28591      -11.545162      271.59937      274.41219      277.19502      20659394     
        94   0             -7938966.1      0.18363732     0.16982209     0.17919568     0.20189417     2.2675791      15.285907     -11.545258      271.59937      274.41219      277.19502      20659394     
        95   0             -7938966.1      0.18164005     0.16779511     0.17723824     0.19988679     2.2675294      15.285844     -11.545339      271.59937      274.41219      277.19502      20659394     
        96   0             -7938966.1      0.17996031     0.16609409     0.17559684     0.19819        2.2674744      15.285853     -11.545425      271.59937      274.41219      277.19502      20659394     
        97   0             -7938966.1      0.17895116     0.16508362     0.17463239     0.19713747     2.2675258      15.285905     -11.54549       271.59937      274.41219      277.19502      20659394     
        98   0             -7938966.1      0.17864313     0.16470589     0.17434348     0.19688002     2.2676086      15.285998     -11.545531      271.59937      274.41219      277.19502      20659394     
        99   0             -7938966.1      0.17886392     0.16485211     0.17451129     0.19722837     2.2676625      15.286001     -11.545578      271.59937      274.41219      277.19502      20659394     
       100   0             -7938966.1      0.17886392     0.16485211     0.17451129     0.19722837     2.2676625      15.286001     -11.545578      271.59937      274.41219      277.19502      20659394     
Loop time of 586.199 on 6 procs for 98 steps with 1837080 atoms

13.8% CPU use with 6 MPI tasks x 1 OpenMP threads

Minimization stats:
  Stopping criterion = linesearch alpha is zero
  Energy initial, next-to-last, final = 
     -7938966.05404297  -7938966.05506691  -7938966.05506691
  Force two-norm initial, final = 0.12340339 0.0029520354
  Force max component initial, final = 0.00039525618 0.000171976
  Final line search alpha, max atom move = 0.0009765625 1.6794531e-07
  Iterations, force evaluations = 98 215

MPI task timing breakdown:
Section |  min time  |  avg time  |  max time  |%varavg| %total
---------------------------------------------------------------
Pair    | 581.73     | 582.32     | 582.62     |   1.2 | 99.34
Neigh   | 0          | 0          | 0          |   0.0 |  0.00
Comm    | 1.4106     | 1.7128     | 2.3148     |  23.2 |  0.29
Output  | 0.56921    | 0.57583    | 0.58344    |   0.5 |  0.10
Modify  | 0          | 0          | 0          |   0.0 |  0.00
Other   |            | 1.59       |            |       |  0.27

Nlocal:         306180 ave      307005 max      305135 min
Histogram: 1 0 0 2 0 0 0 0 2 1
Nghost:         103101 ave      104146 max      102276 min
Histogram: 1 2 0 0 0 0 2 0 0 1
Neighs:    2.05139e+07 ave 2.05836e+07 max 2.04288e+07 min
Histogram: 1 0 0 0 1 1 1 1 0 1

Total # of neighbors = 1.2308368e+08
Ave neighs/atom = 66.999631
Neighbor list builds = 0
Dangerous builds = 0

# Obtain new stress tensor

variable tmp equal pe
variable e1 equal ${tmp}
variable e1 equal -7938966.05506691
variable tmp equal press
variable p1 equal ${tmp}
variable p1 equal 0.178863924663566
variable tmp equal pxx
variable pxx1 equal ${tmp}
variable pxx1 equal 0.164852111177165
variable tmp equal pyy
variable pyy1 equal ${tmp}
variable pyy1 equal 0.17451129230633
variable tmp equal pzz
variable pzz1 equal ${tmp}
variable pzz1 equal 0.197228370507203
variable tmp equal pxy
variable pxy1 equal ${tmp}
variable pxy1 equal 2.26766245452891
variable tmp equal pxz
variable pxz1 equal ${tmp}
variable pxz1 equal 15.2860014880196
variable tmp equal pyz
variable pyz1 equal ${tmp}
variable pyz1 equal -11.5455776300011

# Compute elastic constant from pressure tensor

variable C1pos equal ${d1}
variable C1pos equal -17.8943301552378
variable C2pos equal ${d2}
variable C2pos equal -18.4892073154886
variable C3pos equal ${d3}
variable C3pos equal -18.5163851603571
variable C4pos equal ${d4}
variable C4pos equal 0.108193503220022
variable C5pos equal ${d5}
variable C5pos equal -27.55705646954
variable C6pos equal ${d6}
variable C6pos equal 75.548857167798

# Combine positive and negative

variable C1${dir} equal 0.5*(${C1neg}+${C1pos})
variable C16 equal 0.5*(${C1neg}+${C1pos})
variable C16 equal 0.5*(18.1458754570552+${C1pos})
variable C16 equal 0.5*(18.1458754570552+-17.8943301552378)
variable C2${dir} equal 0.5*(${C2neg}+${C2pos})
variable C26 equal 0.5*(${C2neg}+${C2pos})
variable C26 equal 0.5*(18.7436580099317+${C2pos})
variable C26 equal 0.5*(18.7436580099317+-18.4892073154886)
variable C3${dir} equal 0.5*(${C3neg}+${C3pos})
variable C36 equal 0.5*(${C3neg}+${C3pos})
variable C36 equal 0.5*(18.7651431352265+${C3pos})
variable C36 equal 0.5*(18.7651431352265+-18.5163851603571)
variable C4${dir} equal 0.5*(${C4neg}+${C4pos})
variable C46 equal 0.5*(${C4neg}+${C4pos})
variable C46 equal 0.5*(-0.134481501880046+${C4pos})
variable C46 equal 0.5*(-0.134481501880046+0.108193503220022)
variable C5${dir} equal 0.5*(${C5neg}+${C5pos})
variable C56 equal 0.5*(${C5neg}+${C5pos})
variable C56 equal 0.5*(-27.51076312907+${C5pos})
variable C56 equal 0.5*(-27.51076312907+-27.55705646954)
variable C6${dir} equal 0.5*(${C6neg}+${C6pos})
variable C66 equal 0.5*(${C6neg}+${C6pos})
variable C66 equal 0.5*(75.776668083481+${C6pos})
variable C66 equal 0.5*(75.776668083481+75.548857167798)

# Delete dir to make sure it is not reused

variable dir delete

# Output final values

variable C11all equal ${C11}
variable C11all equal 309.980485814949
variable C22all equal ${C22}
variable C22all equal 310.114266502564
variable C33all equal ${C33}
variable C33all equal 329.60712557813

variable C12all equal 0.5*(${C12}+${C21})
variable C12all equal 0.5*(158.799290566188+${C21})
variable C12all equal 0.5*(158.799290566188+158.76111601566)
variable C13all equal 0.5*(${C13}+${C31})
variable C13all equal 0.5*(139.276929887444+${C31})
variable C13all equal 0.5*(139.276929887444+139.27551609151)
variable C23all equal 0.5*(${C23}+${C32})
variable C23all equal 0.5*(139.291115534529+${C32})
variable C23all equal 0.5*(139.291115534529+139.303006594596)

variable C44all equal ${C44}
variable C44all equal 56.17613344961
variable C55all equal ${C55}
variable C55all equal 56.179213891625
variable C66all equal ${C66}
variable C66all equal 75.6627626256395

variable C14all equal 0.5*(${C14}+${C41})
variable C14all equal 0.5*(-27.5785734908159+${C41})
variable C14all equal 0.5*(-27.5785734908159+-27.54354694967)
variable C15all equal 0.5*(${C15}+${C51})
variable C15all equal 0.5*(0.0716605313484493+${C51})
variable C15all equal 0.5*(0.0716605313484493+0.000930508275054351)
variable C16all equal 0.5*(${C16}+${C61})
variable C16all equal 0.5*(0.125772650908701+${C61})
variable C16all equal 0.5*(0.125772650908701+0.017464481309504)

variable C24all equal 0.5*(${C24}+${C42})
variable C24all equal 0.5*(27.5242264265573+${C42})
variable C24all equal 0.5*(27.5242264265573+27.5635719759699)
variable C25all equal 0.5*(${C25}+${C52})
variable C25all equal 0.5*(0.0724679938402506+${C52})
variable C25all equal 0.5*(0.0724679938402506+-0.0110715262249705)
variable C26all equal 0.5*(${C26}+${C62})
variable C26all equal 0.5*(0.12722534722155+${C62})
variable C26all equal 0.5*(0.12722534722155+0.0154379927715052)

variable C34all equal 0.5*(${C34}+${C43})
variable C34all equal 0.5*(-6.95649464486081e-05+${C43})
variable C34all equal 0.5*(-6.95649464486081e-05+0.013258123604931)
variable C35all equal 0.5*(${C35}+${C53})
variable C35all equal 0.5*(0.0750884880873492+${C53})
variable C35all equal 0.5*(0.0750884880873492+-0.00516217133998965)
variable C36all equal 0.5*(${C36}+${C63})
variable C36all equal 0.5*(0.124378987434699+${C63})
variable C36all equal 0.5*(0.124378987434699+0.0043802401919815)

variable C45all equal 0.5*(${C45}+${C54})
variable C45all equal 0.5*(-0.0153837577800075+${C54})
variable C45all equal 0.5*(-0.0153837577800075+-0.00177331294999305)
variable C46all equal 0.5*(${C46}+${C64})
variable C46all equal 0.5*(-0.013143999330012+${C64})
variable C46all equal 0.5*(-0.013143999330012+-0.010291549736996)
variable C56all equal 0.5*(${C56}+${C65})
variable C56all equal 0.5*(-27.533909799305+${C65})
variable C56all equal 0.5*(-27.533909799305+-27.537775760444)

# Average moduli for cubic crystals

variable C11cubic equal (${C11all}+${C22all}+${C33all})/3.0
variable C11cubic equal (309.980485814949+${C22all}+${C33all})/3.0
variable C11cubic equal (309.980485814949+310.114266502564+${C33all})/3.0
variable C11cubic equal (309.980485814949+310.114266502564+329.60712557813)/3.0
variable C12cubic equal (${C12all}+${C13all}+${C23all})/3.0
variable C12cubic equal (158.780203290924+${C13all}+${C23all})/3.0
variable C12cubic equal (158.780203290924+139.276222989477+${C23all})/3.0
variable C12cubic equal (158.780203290924+139.276222989477+139.297061064563)/3.0
variable C44cubic equal (${C44all}+${C55all}+${C66all})/3.0
variable C44cubic equal (56.17613344961+${C55all}+${C66all})/3.0
variable C44cubic equal (56.17613344961+56.179213891625+${C66all})/3.0
variable C44cubic equal (56.17613344961+56.179213891625+75.6627626256395)/3.0

variable bulkmodulus equal (${C11cubic}+2*${C12cubic})/3.0
variable bulkmodulus equal (316.567292631881+2*${C12cubic})/3.0
variable bulkmodulus equal (316.567292631881+2*145.784495781655)/3.0
variable shearmodulus1 equal ${C44cubic}
variable shearmodulus1 equal 62.6727033222915
variable shearmodulus2 equal (${C11cubic}-${C12cubic})/2.0
variable shearmodulus2 equal (316.567292631881-${C12cubic})/2.0
variable shearmodulus2 equal (316.567292631881-145.784495781655)/2.0
variable poissonratio equal 1.0/(1.0+${C11cubic}/${C12cubic})
variable poissonratio equal 1.0/(1.0+316.567292631881/${C12cubic})
variable poissonratio equal 1.0/(1.0+316.567292631881/145.784495781655)

# For Stillinger-Weber silicon, the analytical results
# are known to be (E. R. Cowley, 1988):
#               C11 = 151.4 GPa
#               C12 = 76.4 GPa
#               C44 = 56.4 GPa

print "========================================="
=========================================
print "Components of the Elastic Constant Tensor"
Components of the Elastic Constant Tensor
print "========================================="
=========================================

print "Elastic Constant C11all = ${C11all} ${cunits}"
Elastic Constant C11all = 309.980485814949 GPa
print "Elastic Constant C22all = ${C22all} ${cunits}"
Elastic Constant C22all = 310.114266502564 GPa
print "Elastic Constant C33all = ${C33all} ${cunits}"
Elastic Constant C33all = 329.60712557813 GPa

print "Elastic Constant C12all = ${C12all} ${cunits}"
Elastic Constant C12all = 158.780203290924 GPa
print "Elastic Constant C13all = ${C13all} ${cunits}"
Elastic Constant C13all = 139.276222989477 GPa
print "Elastic Constant C23all = ${C23all} ${cunits}"
Elastic Constant C23all = 139.297061064563 GPa

print "Elastic Constant C44all = ${C44all} ${cunits}"
Elastic Constant C44all = 56.17613344961 GPa
print "Elastic Constant C55all = ${C55all} ${cunits}"
Elastic Constant C55all = 56.179213891625 GPa
print "Elastic Constant C66all = ${C66all} ${cunits}"
Elastic Constant C66all = 75.6627626256395 GPa

print "Elastic Constant C14all = ${C14all} ${cunits}"
Elastic Constant C14all = -27.561060220243 GPa
print "Elastic Constant C15all = ${C15all} ${cunits}"
Elastic Constant C15all = 0.0362955198117518 GPa
print "Elastic Constant C16all = ${C16all} ${cunits}"
Elastic Constant C16all = 0.0716185661091025 GPa

print "Elastic Constant C24all = ${C24all} ${cunits}"
Elastic Constant C24all = 27.5438992012636 GPa
print "Elastic Constant C25all = ${C25all} ${cunits}"
Elastic Constant C25all = 0.0306982338076401 GPa
print "Elastic Constant C26all = ${C26all} ${cunits}"
Elastic Constant C26all = 0.0713316699965276 GPa

print "Elastic Constant C34all = ${C34all} ${cunits}"
Elastic Constant C34all = 0.0065942793292412 GPa
print "Elastic Constant C35all = ${C35all} ${cunits}"
Elastic Constant C35all = 0.0349631583736798 GPa
print "Elastic Constant C36all = ${C36all} ${cunits}"
Elastic Constant C36all = 0.0643796138133402 GPa

print "Elastic Constant C45all = ${C45all} ${cunits}"
Elastic Constant C45all = -0.00857853536500027 GPa
print "Elastic Constant C46all = ${C46all} ${cunits}"
Elastic Constant C46all = -0.011717774533504 GPa
print "Elastic Constant C56all = ${C56all} ${cunits}"
Elastic Constant C56all = -27.5358427798745 GPa

print "========================================="
=========================================
print "Average properties for a cubic crystal"
Average properties for a cubic crystal
print "========================================="
=========================================

print "Bulk Modulus = ${bulkmodulus} ${cunits}"
Bulk Modulus = 202.71209473173 GPa
print "Shear Modulus 1 = ${shearmodulus1} ${cunits}"
Shear Modulus 1 = 62.6727033222915 GPa
print "Shear Modulus 2 = ${shearmodulus2} ${cunits}"
Shear Modulus 2 = 85.391398425113 GPa
print "Poisson Ratio = ${poissonratio}"
Poisson Ratio = 0.315310764303268
Total wall time: 1:07:44
