 # Fcc Ni oriented X=[1-10] Y=[11-2] Z=[111].
 
       54000  atoms
           1  atom types
 
      0.00000000      75.44263670  xlo xhi
      0.00000000     130.67047982  ylo yhi
      0.00000000      61.59865492  zlo zhi
 
Masses
 
           1   58.69340000    # Ni
 
Atoms # atomic
 
         1    1        0.00000000       0.00000000       0.00000000
         2    1        0.00000000       2.90378844       4.10657699
         3    1        0.00000000       1.45189422       2.05328850
         4    1        1.25737728       3.62973555       2.05328850
         5    1        1.25737728       0.72594711       4.10657699
         6    1        1.25737728       2.17784133       0.00000000
         7    1        2.51475456       0.00000000       0.00000000
         8    1        2.51475456       2.90378844       4.10657699
         9    1        2.51475456       1.45189422       2.05328850
        10    1        3.77213183       3.62973555       2.05328850
        11    1        3.77213183       0.72594711       4.10657699
        12    1        3.77213183       2.17784133       0.00000000
        13    1        5.02950911       0.00000000       0.00000000
        14    1        5.02950911       2.90378844       4.10657699
        15    1        5.02950911       1.45189422       2.05328850
        16    1        6.28688639       3.62973555       2.05328850
        17    1        6.28688639       0.72594711       4.10657699
        18    1        6.28688639       2.17784133       0.00000000
        19    1        7.54426367       0.00000000       0.00000000
        20    1        7.54426367       2.90378844       4.10657699
        21    1        7.54426367       1.45189422       2.05328850
        22    1        8.80164095       3.62973555       2.05328850
        23    1        8.80164095       0.72594711       4.10657699
        24    1        8.80164095       2.17784133       0.00000000
        25    1       10.05901823       0.00000000       0.00000000
        26    1       10.05901823       2.90378844       4.10657699
        27    1       10.05901823       1.45189422       2.05328850
        28    1       11.31639550       3.62973555       2.05328850
        29    1       11.31639550       0.72594711       4.10657699
        30    1       11.31639550       2.17784133       0.00000000
        31    1       12.57377278       0.00000000       0.00000000
        32    1       12.57377278       2.90378844       4.10657699
        33    1       12.57377278       1.45189422       2.05328850
        34    1       13.83115006       3.62973555       2.05328850
        35    1       13.83115006       0.72594711       4.10657699
        36    1       13.83115006       2.17784133       0.00000000
        37    1       15.08852734       0.00000000       0.00000000
        38    1       15.08852734       2.90378844       4.10657699
        39    1       15.08852734       1.45189422       2.05328850
        40    1       16.34590462       3.62973555       2.05328850
        41    1       16.34590462       0.72594711       4.10657699
        42    1       16.34590462       2.17784133       0.00000000
        43    1       17.60328190       0.00000000       0.00000000
        44    1       17.60328190       2.90378844       4.10657699
        45    1       17.60328190       1.45189422       2.05328850
        46    1       18.86065917       3.62973555       2.05328850
        47    1       18.86065917       0.72594711       4.10657699
        48    1       18.86065917       2.17784133       0.00000000
        49    1       20.11803645       0.00000000       0.00000000
        50    1       20.11803645       2.90378844       4.10657699
        51    1       20.11803645       1.45189422       2.05328850
        52    1       21.37541373       3.62973555       2.05328850
        53    1       21.37541373       0.72594711       4.10657699
        54    1       21.37541373       2.17784133       0.00000000
        55    1       22.63279101       0.00000000       0.00000000
        56    1       22.63279101       2.90378844       4.10657699
        57    1       22.63279101       1.45189422       2.05328850
        58    1       23.89016829       3.62973555       2.05328850
        59    1       23.89016829       0.72594711       4.10657699
        60    1       23.89016829       2.17784133       0.00000000
        61    1       25.14754557       0.00000000       0.00000000
        62    1       25.14754557       2.90378844       4.10657699
        63    1       25.14754557       1.45189422       2.05328850
        64    1       26.40492284       3.62973555       2.05328850
        65    1       26.40492284       0.72594711       4.10657699
        66    1       26.40492284       2.17784133       0.00000000
        67    1       27.66230012       0.00000000       0.00000000
        68    1       27.66230012       2.90378844       4.10657699
        69    1       27.66230012       1.45189422       2.05328850
        70    1       28.91967740       3.62973555       2.05328850
        71    1       28.91967740       0.72594711       4.10657699
        72    1       28.91967740       2.17784133       0.00000000
        73    1       30.17705468       0.00000000       0.00000000
        74    1       30.17705468       2.90378844       4.10657699
        75    1       30.17705468       1.45189422       2.05328850
        76    1       31.43443196       3.62973555       2.05328850
        77    1       31.43443196       0.72594711       4.10657699
        78    1       31.43443196       2.17784133       0.00000000
        79    1       32.69180924       0.00000000       0.00000000
        80    1       32.69180924       2.90378844       4.10657699
        81    1       32.69180924       1.45189422       2.05328850
        82    1       33.94918651       3.62973555       2.05328850
        83    1       33.94918651       0.72594711       4.10657699
        84    1       33.94918651       2.17784133       0.00000000
        85    1       35.20656379       0.00000000       0.00000000
        86    1       35.20656379       2.90378844       4.10657699
        87    1       35.20656379       1.45189422       2.05328850
        88    1       36.46394107       3.62973555       2.05328850
        89    1       36.46394107       0.72594711       4.10657699
        90    1       36.46394107       2.17784133       0.00000000
        91    1       37.72131835       0.00000000       0.00000000
        92    1       37.72131835       2.90378844       4.10657699
        93    1       37.72131835       1.45189422       2.05328850
        94    1       38.97869563       3.62973555       2.05328850
        95    1       38.97869563       0.72594711       4.10657699
        96    1       38.97869563       2.17784133       0.00000000
        97    1       40.23607291       0.00000000       0.00000000
        98    1       40.23607291       2.90378844       4.10657699
        99    1       40.23607291       1.45189422       2.05328850
       100    1       41.49345018       3.62973555       2.05328850
       101    1       41.49345018       0.72594711       4.10657699
       102    1       41.49345018       2.17784133       0.00000000
       103    1       42.75082746       0.00000000       0.00000000
       104    1       42.75082746       2.90378844       4.10657699
       105    1       42.75082746       1.45189422       2.05328850
       106    1       44.00820474       3.62973555       2.05328850
       107    1       44.00820474       0.72594711       4.10657699
       108    1       44.00820474       2.17784133       0.00000000
       109    1       45.26558202       0.00000000       0.00000000
       110    1       45.26558202       2.90378844       4.10657699
       111    1       45.26558202       1.45189422       2.05328850
       112    1       46.52295930       3.62973555       2.05328850
       113    1       46.52295930       0.72594711       4.10657699
       114    1       46.52295930       2.17784133       0.00000000
       115    1       47.78033658       0.00000000       0.00000000
       116    1       47.78033658       2.90378844       4.10657699
       117    1       47.78033658       1.45189422       2.05328850
       118    1       49.03771385       3.62973555       2.05328850
       119    1       49.03771385       0.72594711       4.10657699
       120    1       49.03771385       2.17784133       0.00000000
       121    1       50.29509113       0.00000000       0.00000000
       122    1       50.29509113       2.90378844       4.10657699
       123    1       50.29509113       1.45189422       2.05328850
       124    1       51.55246841       3.62973555       2.05328850
       125    1       51.55246841       0.72594711       4.10657699
       126    1       51.55246841       2.17784133       0.00000000
       127    1       52.80984569       0.00000000       0.00000000
       128    1       52.80984569       2.90378844       4.10657699
       129    1       52.80984569       1.45189422       2.05328850
       130    1       54.06722297       3.62973555       2.05328850
       131    1       54.06722297       0.72594711       4.10657699
       132    1       54.06722297       2.17784133       0.00000000
       133    1       55.32460025       0.00000000       0.00000000
       134    1       55.32460025       2.90378844       4.10657699
       135    1       55.32460025       1.45189422       2.05328850
       136    1       56.58197752       3.62973555       2.05328850
       137    1       56.58197752       0.72594711       4.10657699
       138    1       56.58197752       2.17784133       0.00000000
       139    1       57.83935480       0.00000000       0.00000000
       140    1       57.83935480       2.90378844       4.10657699
       141    1       57.83935480       1.45189422       2.05328850
       142    1       59.09673208       3.62973555       2.05328850
       143    1       59.09673208       0.72594711       4.10657699
       144    1       59.09673208       2.17784133       0.00000000
       145    1       60.35410936       0.00000000       0.00000000
       146    1       60.35410936       2.90378844       4.10657699
       147    1       60.35410936       1.45189422       2.05328850
       148    1       61.61148664       3.62973555       2.05328850
       149    1       61.61148664       0.72594711       4.10657699
       150    1       61.61148664       2.17784133       0.00000000
       151    1       62.86886392       0.00000000       0.00000000
       152    1       62.86886392       2.90378844       4.10657699
       153    1       62.86886392       1.45189422       2.05328850
       154    1       64.12624119       3.62973555       2.05328850
       155    1       64.12624119       0.72594711       4.10657699
       156    1       64.12624119       2.17784133       0.00000000
       157    1       65.38361847       0.00000000       0.00000000
       158    1       65.38361847       2.90378844       4.10657699
       159    1       65.38361847       1.45189422       2.05328850
       160    1       66.64099575       3.62973555       2.05328850
       161    1       66.64099575       0.72594711       4.10657699
       162    1       66.64099575       2.17784133       0.00000000
       163    1       67.89837303       0.00000000       0.00000000
       164    1       67.89837303       2.90378844       4.10657699
       165    1       67.89837303       1.45189422       2.05328850
       166    1       69.15575031       3.62973555       2.05328850
       167    1       69.15575031       0.72594711       4.10657699
       168    1       69.15575031       2.17784133       0.00000000
       169    1       70.41312759       0.00000000       0.00000000
       170    1       70.41312759       2.90378844       4.10657699
       171    1       70.41312759       1.45189422       2.05328850
       172    1       71.67050486       3.62973555       2.05328850
       173    1       71.67050486       0.72594711       4.10657699
       174    1       71.67050486       2.17784133       0.00000000
       175    1       72.92788214       0.00000000       0.00000000
       176    1       72.92788214       2.90378844       4.10657699
       177    1       72.92788214       1.45189422       2.05328850
       178    1       74.18525942       3.62973555       2.05328850
       179    1       74.18525942       0.72594711       4.10657699
       180    1       74.18525942       2.17784133       0.00000000
       181    1        0.00000000       4.35568266       0.00000000
       182    1        0.00000000       7.25947110       4.10657699
       183    1        0.00000000       5.80757688       2.05328850
       184    1        1.25737728       7.98541821       2.05328850
       185    1        1.25737728       5.08162977       4.10657699
       186    1        1.25737728       6.53352399       0.00000000
       187    1        2.51475456       4.35568266       0.00000000
       188    1        2.51475456       7.25947110       4.10657699
       189    1        2.51475456       5.80757688       2.05328850
       190    1        3.77213183       7.98541821       2.05328850
       191    1        3.77213183       5.08162977       4.10657699
       192    1        3.77213183       6.53352399       0.00000000
       193    1        5.02950911       4.35568266       0.00000000
       194    1        5.02950911       7.25947110       4.10657699
       195    1        5.02950911       5.80757688       2.05328850
       196    1        6.28688639       7.98541821       2.05328850
       197    1        6.28688639       5.08162977       4.10657699
       198    1        6.28688639       6.53352399       0.00000000
       199    1        7.54426367       4.35568266       0.00000000
       200    1        7.54426367       7.25947110       4.10657699
       201    1        7.54426367       5.80757688       2.05328850
       202    1        8.80164095       7.98541821       2.05328850
       203    1        8.80164095       5.08162977       4.10657699
       204    1        8.80164095       6.53352399       0.00000000
       205    1       10.05901823       4.35568266       0.00000000
       206    1       10.05901823       7.25947110       4.10657699
       207    1       10.05901823       5.80757688       2.05328850
       208    1       11.31639550       7.98541821       2.05328850
       209    1       11.31639550       5.08162977       4.10657699
       210    1       11.31639550       6.53352399       0.00000000
       211    1       12.57377278       4.35568266       0.00000000
       212    1       12.57377278       7.25947110       4.10657699
       213    1       12.57377278       5.80757688       2.05328850
       214    1       13.83115006       7.98541821       2.05328850
       215    1       13.83115006       5.08162977       4.10657699
       216    1       13.83115006       6.53352399       0.00000000
       217    1       15.08852734       4.35568266       0.00000000
       218    1       15.08852734       7.25947110       4.10657699
       219    1       15.08852734       5.80757688       2.05328850
       220    1       16.34590462       7.98541821       2.05328850
       221    1       16.34590462       5.08162977       4.10657699
       222    1       16.34590462       6.53352399       0.00000000
       223    1       17.60328190       4.35568266       0.00000000
       224    1       17.60328190       7.25947110       4.10657699
       225    1       17.60328190       5.80757688       2.05328850
       226    1       18.86065917       7.98541821       2.05328850
       227    1       18.86065917       5.08162977       4.10657699
       228    1       18.86065917       6.53352399       0.00000000
       229    1       20.11803645       4.35568266       0.00000000
       230    1       20.11803645       7.25947110       4.10657699
       231    1       20.11803645       5.80757688       2.05328850
       232    1       21.37541373       7.98541821       2.05328850
       233    1       21.37541373       5.08162977       4.10657699
       234    1       21.37541373       6.53352399       0.00000000
       235    1       22.63279101       4.35568266       0.00000000
       236    1       22.63279101       7.25947110       4.10657699
       237    1       22.63279101       5.80757688       2.05328850
       238    1       23.89016829       7.98541821       2.05328850
       239    1       23.89016829       5.08162977       4.10657699
       240    1       23.89016829       6.53352399       0.00000000
       241    1       25.14754557       4.35568266       0.00000000
       242    1       25.14754557       7.25947110       4.10657699
       243    1       25.14754557       5.80757688       2.05328850
       244    1       26.40492284       7.98541821       2.05328850
       245    1       26.40492284       5.08162977       4.10657699
       246    1       26.40492284       6.53352399       0.00000000
       247    1       27.66230012       4.35568266       0.00000000
       248    1       27.66230012       7.25947110       4.10657699
       249    1       27.66230012       5.80757688       2.05328850
       250    1       28.91967740       7.98541821       2.05328850
       251    1       28.91967740       5.08162977       4.10657699
       252    1       28.91967740       6.53352399       0.00000000
       253    1       30.17705468       4.35568266       0.00000000
       254    1       30.17705468       7.25947110       4.10657699
       255    1       30.17705468       5.80757688       2.05328850
       256    1       31.43443196       7.98541821       2.05328850
       257    1       31.43443196       5.08162977       4.10657699
       258    1       31.43443196       6.53352399       0.00000000
       259    1       32.69180924       4.35568266       0.00000000
       260    1       32.69180924       7.25947110       4.10657699
       261    1       32.69180924       5.80757688       2.05328850
       262    1       33.94918651       7.98541821       2.05328850
       263    1       33.94918651       5.08162977       4.10657699
       264    1       33.94918651       6.53352399       0.00000000
       265    1       35.20656379       4.35568266       0.00000000
       266    1       35.20656379       7.25947110       4.10657699
       267    1       35.20656379       5.80757688       2.05328850
       268    1       36.46394107       7.98541821       2.05328850
       269    1       36.46394107       5.08162977       4.10657699
       270    1       36.46394107       6.53352399       0.00000000
       271    1       37.72131835       4.35568266       0.00000000
       272    1       37.72131835       7.25947110       4.10657699
       273    1       37.72131835       5.80757688       2.05328850
       274    1       38.97869563       7.98541821       2.05328850
       275    1       38.97869563       5.08162977       4.10657699
       276    1       38.97869563       6.53352399       0.00000000
       277    1       40.23607291       4.35568266       0.00000000
       278    1       40.23607291       7.25947110       4.10657699
       279    1       40.23607291       5.80757688       2.05328850
       280    1       41.49345018       7.98541821       2.05328850
       281    1       41.49345018       5.08162977       4.10657699
       282    1       41.49345018       6.53352399       0.00000000
       283    1       42.75082746       4.35568266       0.00000000
       284    1       42.75082746       7.25947110       4.10657699
       285    1       42.75082746       5.80757688       2.05328850
       286    1       44.00820474       7.98541821       2.05328850
       287    1       44.00820474       5.08162977       4.10657699
       288    1       44.00820474       6.53352399       0.00000000
       289    1       45.26558202       4.35568266       0.00000000
       290    1       45.26558202       7.25947110       4.10657699
       291    1       45.26558202       5.80757688       2.05328850
       292    1       46.52295930       7.98541821       2.05328850
       293    1       46.52295930       5.08162977       4.10657699
       294    1       46.52295930       6.53352399       0.00000000
       295    1       47.78033658       4.35568266       0.00000000
       296    1       47.78033658       7.25947110       4.10657699
       297    1       47.78033658       5.80757688       2.05328850
       298    1       49.03771385       7.98541821       2.05328850
       299    1       49.03771385       5.08162977       4.10657699
       300    1       49.03771385       6.53352399       0.00000000
       301    1       50.29509113       4.35568266       0.00000000
       302    1       50.29509113       7.25947110       4.10657699
       303    1       50.29509113       5.80757688       2.05328850
       304    1       51.55246841       7.98541821       2.05328850
       305    1       51.55246841       5.08162977       4.10657699
       306    1       51.55246841       6.53352399       0.00000000
       307    1       52.80984569       4.35568266       0.00000000
       308    1       52.80984569       7.25947110       4.10657699
       309    1       52.80984569       5.80757688       2.05328850
       310    1       54.06722297       7.98541821       2.05328850
       311    1       54.06722297       5.08162977       4.10657699
       312    1       54.06722297       6.53352399       0.00000000
       313    1       55.32460025       4.35568266       0.00000000
       314    1       55.32460025       7.25947110       4.10657699
       315    1       55.32460025       5.80757688       2.05328850
       316    1       56.58197752       7.98541821       2.05328850
       317    1       56.58197752       5.08162977       4.10657699
       318    1       56.58197752       6.53352399       0.00000000
       319    1       57.83935480       4.35568266       0.00000000
       320    1       57.83935480       7.25947110       4.10657699
       321    1       57.83935480       5.80757688       2.05328850
       322    1       59.09673208       7.98541821       2.05328850
       323    1       59.09673208       5.08162977       4.10657699
       324    1       59.09673208       6.53352399       0.00000000
       325    1       60.35410936       4.35568266       0.00000000
       326    1       60.35410936       7.25947110       4.10657699
       327    1       60.35410936       5.80757688       2.05328850
       328    1       61.61148664       7.98541821       2.05328850
       329    1       61.61148664       5.08162977       4.10657699
       330    1       61.61148664       6.53352399       0.00000000
       331    1       62.86886392       4.35568266       0.00000000
       332    1       62.86886392       7.25947110       4.10657699
       333    1       62.86886392       5.80757688       2.05328850
       334    1       64.12624119       7.98541821       2.05328850
       335    1       64.12624119       5.08162977       4.10657699
       336    1       64.12624119       6.53352399       0.00000000
       337    1       65.38361847       4.35568266       0.00000000
       338    1       65.38361847       7.25947110       4.10657699
       339    1       65.38361847       5.80757688       2.05328850
       340    1       66.64099575       7.98541821       2.05328850
       341    1       66.64099575       5.08162977       4.10657699
       342    1       66.64099575       6.53352399       0.00000000
       343    1       67.89837303       4.35568266       0.00000000
       344    1       67.89837303       7.25947110       4.10657699
       345    1       67.89837303       5.80757688       2.05328850
       346    1       69.15575031       7.98541821       2.05328850
       347    1       69.15575031       5.08162977       4.10657699
       348    1       69.15575031       6.53352399       0.00000000
       349    1       70.41312759       4.35568266       0.00000000
       350    1       70.41312759       7.25947110       4.10657699
       351    1       70.41312759       5.80757688       2.05328850
       352    1       71.67050486       7.98541821       2.05328850
       353    1       71.67050486       5.08162977       4.10657699
       354    1       71.67050486       6.53352399       0.00000000
       355    1       72.92788214       4.35568266       0.00000000
       356    1       72.92788214       7.25947110       4.10657699
       357    1       72.92788214       5.80757688       2.05328850
       358    1       74.18525942       7.98541821       2.05328850
       359    1       74.18525942       5.08162977       4.10657699
       360    1       74.18525942       6.53352399       0.00000000
       361    1        0.00000000       8.71136532       0.00000000
       362    1        0.00000000      11.61515376       4.10657699
       363    1        0.00000000      10.16325954       2.05328850
       364    1        1.25737728      12.34110087       2.05328850
       365    1        1.25737728       9.43731243       4.10657699
       366    1        1.25737728      10.88920665       0.00000000
       367    1        2.51475456       8.71136532       0.00000000
       368    1        2.51475456      11.61515376       4.10657699
       369    1        2.51475456      10.16325954       2.05328850
       370    1        3.77213183      12.34110087       2.05328850
       371    1        3.77213183       9.43731243       4.10657699
       372    1        3.77213183      10.88920665       0.00000000
       373    1        5.02950911       8.71136532       0.00000000
       374    1        5.02950911      11.61515376       4.10657699
       375    1        5.02950911      10.16325954       2.05328850
       376    1        6.28688639      12.34110087       2.05328850
       377    1        6.28688639       9.43731243       4.10657699
       378    1        6.28688639      10.88920665       0.00000000
       379    1        7.54426367       8.71136532       0.00000000
       380    1        7.54426367      11.61515376       4.10657699
       381    1        7.54426367      10.16325954       2.05328850
       382    1        8.80164095      12.34110087       2.05328850
       383    1        8.80164095       9.43731243       4.10657699
       384    1        8.80164095      10.88920665       0.00000000
       385    1       10.05901823       8.71136532       0.00000000
       386    1       10.05901823      11.61515376       4.10657699
       387    1       10.05901823      10.16325954       2.05328850
       388    1       11.31639550      12.34110087       2.05328850
       389    1       11.31639550       9.43731243       4.10657699
       390    1       11.31639550      10.88920665       0.00000000
       391    1       12.57377278       8.71136532       0.00000000
       392    1       12.57377278      11.61515376       4.10657699
       393    1       12.57377278      10.16325954       2.05328850
       394    1       13.83115006      12.34110087       2.05328850
       395    1       13.83115006       9.43731243       4.10657699
       396    1       13.83115006      10.88920665       0.00000000
       397    1       15.08852734       8.71136532       0.00000000
       398    1       15.08852734      11.61515376       4.10657699
       399    1       15.08852734      10.16325954       2.05328850
       400    1       16.34590462      12.34110087       2.05328850
       401    1       16.34590462       9.43731243       4.10657699
       402    1       16.34590462      10.88920665       0.00000000
       403    1       17.60328190       8.71136532       0.00000000
       404    1       17.60328190      11.61515376       4.10657699
       405    1       17.60328190      10.16325954       2.05328850
       406    1       18.86065917      12.34110087       2.05328850
       407    1       18.86065917       9.43731243       4.10657699
       408    1       18.86065917      10.88920665       0.00000000
       409    1       20.11803645       8.71136532       0.00000000
       410    1       20.11803645      11.61515376       4.10657699
       411    1       20.11803645      10.16325954       2.05328850
       412    1       21.37541373      12.34110087       2.05328850
       413    1       21.37541373       9.43731243       4.10657699
       414    1       21.37541373      10.88920665       0.00000000
       415    1       22.63279101       8.71136532       0.00000000
       416    1       22.63279101      11.61515376       4.10657699
       417    1       22.63279101      10.16325954       2.05328850
       418    1       23.89016829      12.34110087       2.05328850
       419    1       23.89016829       9.43731243       4.10657699
       420    1       23.89016829      10.88920665       0.00000000
       421    1       25.14754557       8.71136532       0.00000000
       422    1       25.14754557      11.61515376       4.10657699
       423    1       25.14754557      10.16325954       2.05328850
       424    1       26.40492284      12.34110087       2.05328850
       425    1       26.40492284       9.43731243       4.10657699
       426    1       26.40492284      10.88920665       0.00000000
       427    1       27.66230012       8.71136532       0.00000000
       428    1       27.66230012      11.61515376       4.10657699
       429    1       27.66230012      10.16325954       2.05328850
       430    1       28.91967740      12.34110087       2.05328850
       431    1       28.91967740       9.43731243       4.10657699
       432    1       28.91967740      10.88920665       0.00000000
       433    1       30.17705468       8.71136532       0.00000000
       434    1       30.17705468      11.61515376       4.10657699
       435    1       30.17705468      10.16325954       2.05328850
       436    1       31.43443196      12.34110087       2.05328850