# LAMMPS data file written by Ovito 3.0.0-dev609
54000 atoms
3 atom types
0.0410337595 75.4779704705 xlo xhi
0.0673559374 130.7353963226 ylo yhi
0.0305824124 61.6304263376 zlo zhi

Masses

1 58.69
2 58.93
3 52.0

Atoms  # atomic

4 2 1.2897236265 3.6992929323 3.093293335 0 0 0
5 3 1.2949767595 0.7796816266 5.1108656965 0 0 0
6 3 1.1672491733 2.2945115137 1.0493209605 0 0 0
8 3 2.498888494 2.9903493837 5.1416184685 0 0 0
9 3 2.5075891253 1.5419527916 3.0819147924 0 0 0
10 3 3.8061518873 3.7331092966 3.1256404281 0 0 0
11 2 3.7958738202 0.8227819003 5.1278930734 0 0 0
12 3 3.8454614197 2.2920029961 1.0803673846 0 0 0
185 1 1.2601320282 5.1522582709 5.1412939562 0 0 0
191 1 3.8006432553 5.1729958634 5.1748888095 0 0 0
14 3 5.0818846629 2.9737938148 5.1752524306 0 0 0
15 3 5.0531588183 1.5356985297 3.1342681589 0 0 0
16 2 6.3185975815 3.7310541621 3.0923327427 0 0 0
17 2 6.3253584417 0.8118431984 5.2076720256 0 0 0
20 3 7.5875957711 3.0214791222 5.1447998535 0 0 0
21 3 7.5288514555 1.5700227171 3.1525485903 0 0 0
22 3 8.8392608484 3.6922413001 3.0777917625 0 0 0
23 1 8.8449882239 0.8190664202 5.1484090869 0 0 0
193 2 5.0653134655 4.4337203872 1.0479110479 0 0 0
197 3 6.3252161247 5.2302344536 5.1101136751 0 0 0
203 1 8.8806076682 5.185278567 5.1378211153 0 0 0
26 1 10.1172355938 2.9961343023 5.1610345577 0 0 0
27 2 10.0428177825 1.5821280428 3.0381236162 0 0 0
28 2 11.3449498748 3.7285237988 3.0855419201 0 0 0
29 1 11.3528676852 0.8134120411 5.1406578301 0 0 0
30 1 11.3644230704 2.2601660672 1.034303692 0 0 0
31 1 12.6243145521 0.0779466139 1.0465506351 0 0 0
32 2 12.6371893356 3.0045562384 5.165755855 0 0 0
33 3 12.6317463233 1.6444666156 3.1059494891 0 0 0
34 2 13.8856588256 3.7506393666 3.1242412993 0 0 0
35 1 13.8161087847 0.7694909863 5.1738985412 0 0 0
36 3 13.8930346801 2.2721810301 1.1110412175 0 0 0
209 1 11.3825123326 5.1734061367 5.1699157223 0 0 0
211 3 12.5821021255 4.4674978579 1.1474505412 0 0 0
215 2 13.8939180202 5.1756926526 5.1657082348 0 0 0
37 2 15.1243022131 0.129327996 1.051084696 0 0 0
38 2 15.1057021212 2.9719468267 5.1830692288 0 0 0
39 2 15.113872077 1.5405808516 3.122052283 0 0 0
40 2 16.3716449506 3.728671179 3.1260819175 0 0 0
41 3 16.3012644446 0.7767392884 5.1492654487 0 0 0
42 3 16.3841449 2.3050423164 1.1116500458 0 0 0
43 3 17.6076070712 0.0709920048 1.0784483421 0 0 0
44 3 17.5793003681 2.9523786861 5.2229608427 0 0 0
45 1 17.6340133846 1.5627860749 3.1385487348 0 0 0
217 1 15.1335819237 4.4742260507 1.0584963148 0 0 0
221 3 16.3453868109 5.179827097 5.1059027397 0 0 0
223 2 17.6282732228 4.4557082539 1.0534446326 0 0 0
227 1 18.8613493317 5.1930581063 5.1527462601 0 0 0
48 3 18.8783094213 2.2881373769 1.0352379428 0 0 0
47 2 18.8644662123 0.8206856198 5.1678868469 0 0 0
46 1 18.865045664 3.7474874922 3.122502821 0 0 0
184 3 1.2416202318 8.0537230605 3.0836690291 0 0 0
186 3 1.2922116702 6.5793375315 1.0383764139 0 0 0
188 3 2.5237506381 7.350695099 5.0996940424 0 0 0
189 2 2.5471188359 5.88117977 3.0976935518 0 0 0
190 2 3.7802902728 8.0548712522 3.0648403549 0 0 0
192 3 3.8010976956 6.5900222442 1.0420582121 0 0 0
365 2 1.2815830927 9.5052976745 5.1378677058 0 0 0
369 1 2.535226762 10.2490911389 3.080368069 0 0 0
371 1 3.8066427731 9.5282589977 5.1086835103 0 0 0
194 3 5.0730898226 7.3333340128 5.0573531757 0 0 0
195 3 5.0850033825 5.9012499871 3.053835207 0 0 0
196 2 6.3179957988 8.0576330209 3.0961987839 0 0 0
200 2 7.5653460747 7.312795993 5.1544837622 0 0 0
201 1 7.6192709874 5.9006608327 3.0639413572 0 0 0
202 2 8.8356734127 8.0813269317 3.0738286504 0 0 0
373 2 5.0358569814 8.8059537165 1.0548622899 0 0 0
375 3 5.1107495426 10.1831719701 3.0480915215 0 0 0
377 1 6.3519621856 9.5011375708 5.1434366044 0 0 0
379 3 7.498875049 8.8191256433 1.1203191874 0 0 0
381 2 7.5832345817 10.2474176125 3.0694987243 0 0 0
383 1 8.8570978412 9.4940642113 5.1856447866 0 0 0
384 3 8.7480481237 10.9454584552 1.0611077832 0 0 0
206 1 10.1493163407 7.360791243 5.1630102994 0 0 0
207 3 10.1170032615 5.8851839691 3.0798209513 0 0 0
208 1 11.3757301967 8.075926157 3.1243778829 0 0 0
210 2 11.3477897334 6.5999861623 1.0676691891 0 0 0
212 3 12.7213990048 7.3551556659 5.1976761956 0 0 0
213 3 12.6563529863 5.9170647868 3.1426659668 0 0 0
214 1 13.8744184979 8.103869617 3.0801860036 0 0 0
216 2 13.8473346032 6.6152293332 1.045296745 0 0 0
385 3 10.0453802096 8.7348063747 1.082848009 0 0 0
387 1 10.0960869374 10.2500576931 3.1227161558 0 0 0
389 2 11.4058307722 9.5096865054 5.2231882381 0 0 0
393 1 12.6148268626 10.2539919139 3.1066358622 0 0 0
395 3 13.9043310667 9.5272743484 5.1553408276 0 0 0
228 2 18.8914132102 6.6149221874 1.0470323028 0 0 0
226 2 18.8616412308 8.0919291868 3.0984824461 0 0 0
218 2 15.1430118716 7.3503127764 5.1460773796 0 0 0
219 2 15.1178199466 5.9155318501 3.0973333294 0 0 0
220 1 16.3763949803 8.0890952798 3.0759154723 0 0 0
224 2 17.6281913982 7.3620056977 5.137421004 0 0 0
225 3 17.615121885 5.9542926445 3.0580094666 0 0 0
397 1 15.136339546 8.8108903494 1.0323669649 0 0 0
399 2 15.1628569645 10.2920465791 3.0850155268 0 0 0
401 3 16.4015299223 9.5041435242 5.141761322 0 0 0
405 3 17.6818925047 10.2472517424 3.0961468735 0 0 0
368 2 2.5502479007 11.7284758109 5.1388219422 0 0 0
364 1 1.2822197292 12.4287745233 3.1082099034 0 0 0
370 3 3.8307639075 12.3928573336 3.0542507068 0 0 0
542 1 0.0422772793 16.0658517514 5.1338336093 0 0 0
545 3 1.3038517363 13.8817378834 5.198793657 0 0 0
546 3 1.2823266451 15.3785409181 1.056325112 0 0 0
548 2 2.5690244483 16.0061151604 5.1276036036 0 0 0
549 2 2.5697505733 14.5788399289 3.0724810334 0 0 0
551 3 3.7501939552 13.866966595 5.1221664061 0 0 0
374 1 5.0780373328 11.6977658022 5.105041045 0 0 0
378 2 6.2880071089 11.0110597984 1.0415068407 0 0 0
380 1 7.6009074177 11.6883656811 5.1442278038 0 0 0
376 3 6.3381029877 12.3580434744 3.0259835371 0 0 0
554 1 5.075162567 16.0249623416 5.1287029536 0 0 0
555 3 5.0043998403 14.5722801439 3.0797305832 0 0 0
557 1 6.3351390453 13.8514247753 5.119325863 0 0 0
560 3 7.5957015314 16.0698010096 5.1268368601 0 0 0
561 3 7.5611151901 14.5962832723 3.0980508819 0 0 0
382 1 8.8511946379 12.4219432838 3.0940307396 0 0 0
563 2 8.8350323442 13.9070956555 5.1568075998 0 0 0
386 2 10.1382124728 11.6832645139 5.1672003043 0 0 0
390 1 11.3025956207 10.9608226965 1.0689277412 0 0 0
392 2 12.6016897659 11.6738092385 5.167113345 0 0 0
388 3 11.3637997481 12.4438231362 3.1250930447 0 0 0
566 2 10.0901737911 16.0966339114 5.1202479141 0 0 0
567 1 10.0895983083 14.584352331 3.0736475357 0 0 0
569 1 11.3464273522 13.8701611641 5.1381041979 0 0 0
394 1 13.862338054 12.4304083497 3.0932244684 0 0 0
571 2 12.6002326833 13.1152073988 1.0545019829 0 0 0
572 2 12.5967745624 16.1114763101 5.1085879653 0 0 0
573 3 12.5912343477 14.6491743506 3.110547759 0 0 0
575 1 13.8507628601 13.8789439646 5.1372192285 0 0 0
587 2 18.8552857183 13.8558676412 5.1447549346 0 0 0
398 1 15.1442595576 11.7036465408 5.1474187146 0 0 0
402 2 16.393129539 10.9911033173 1.0702659092 0 0 0
404 2 17.6354330525 11.6864204477 5.1190454183 0 0 0
400 3 16.4149984019 12.4473438689 3.0609040152 0 0 0
578 3 15.0606747541 16.0487167046 5.1400595298 0 0 0
579 3 15.1468712876 14.6040794169 3.0688930317 0 0 0
581 1 16.3771497139 13.8843392261 5.1620471961 0 0 0
582 2 16.3709214851 15.2747097295 1.0453756049 0 0 0
583 2 17.6392429734 13.123932015 1.0960023289 0 0 0
584 2 17.573461214 16.0946585359 5.1752117926 0 0 0
585 1 17.6268582536 14.6013151832 3.1216623565 0 0 0
5403 1 0.0413373286 1.528417841 9.2657484664 0 0 0
5404 1 1.2835129267 3.706099596 9.2717993881 0 0 0
5406 3 1.2733163714 2.2640756395 7.169291132 0 0 0
5407 2 2.5235086918 0.0799818808 7.1555837836 0 0 0
5409 1 2.5372234568 1.4952870531 9.2736382249 0 0 0
5410 1 3.7868635197 3.6773282851 9.2891089454 0 0 0
5412 1 3.7615577374 2.2573734579 7.2227403018 0 0 0
5581 2 0.0485387985 4.4349723191 7.1952030815 0 0 0
5587 1 2.5420885785 4.4541010174 7.222886659 0 0 0
5413 3 4.9794667719 0.0770300044 7.1902281732 0 0 0
5415 2 5.093466642 1.4733122175 9.2535844665 0 0 0
5416 2 6.3228949527 3.6528457183 9.2496249711 0 0 0
5418 3 6.2890134892 2.2344751011 7.2599299352 0 0 0
5419 3 7.5582217741 0.0771171667 7.2538341224 0 0 0
5421 3 7.5976026529 1.4818787845 9.3154667124 0 0 0
5422 2 8.7937963807 3.6899593011 9.2375854603 0 0 0
5424 3 8.8188619428 2.2468204141 7.2504294964 0 0 0
5593 3 5.0998523313 4.4307947212 7.2409502053 0 0 0
5599 3 7.5992577982 4.4663060653 7.1744679593 0 0 0
5597 3 6.2611025615 5.057687061 11.274367575 0 0 0
5603 3 8.7601260139 5.1362705197 11.2736886422 0 0 0
5427 2 10.0537783475 1.5015579464 9.2366753817 0 0 0
5428 1 11.3390679373 3.6949926187 9.2639628227 0 0 0
5430 1 11.3543756942 2.2409696748 7.2229044816 0 0 0
5433 2 12.6235944371 1.5179916579 9.2659783748 0 0 0
5434 3 13.8869415976 3.7248251967 9.1518727462 0 0 0
5436 2 13.8677033161 2.2015666703 7.2419872912 0 0 0
5605 2 10.0830263023 4.4301848635 7.2152985401 0 0 0
5611 3 12.6361733644 4.4385365761 7.2028568519 0 0 0
5432 1 12.6164550243 2.9744659226 11.2870192844 0 0 0
5615 3 13.8305629783 5.1703446956 11.2410171109 0 0 0
5446 2 18.8773302173 3.7117848715 9.2910882461 0 0 0
5439 3 15.108879215 1.5431151856 9.3156540639 0 0 0
5440 1 16.3755855675 3.7396516048 9.2773894466 0 0 0
5442 3 16.3076471368 2.2394973762 7.2637248413 0 0 0
5445 3 17.6298127228 1.5481714116 9.3055078676 0 0 0
5617 2 15.1394956162 4.4258177201 7.1953610931 0 0 0
5623 1 17.6336584331 4.4440279629 7.2020019016 0 0 0
5438 2 15.091324932 2.9564694318 11.2861717061 0 0 0
5583 1 0.0472508351 5.8834533254 9.2516986723 0 0 0
5584 3 1.2673324171 8.0971543596 9.1711075175 0 0 0
5586 3 1.2360590608 6.6310319231 7.1698429614 0 0 0
5589 3 2.5383607013 5.9080246302 9.2324688832 0 0 0
5590 1 3.7874194315 8.0847744479 9.2262371944 0 0 0
5592 1 3.7835506088 6.6616315484 7.1684738407 0 0 0
5763 1 0.0532032417 10.2620504479 9.2619863598 0 0 0
5767 3 2.4803781888 8.8449705799 7.1547800969 0 0 0
5769 1 2.5711318602 10.2723849254 9.2387310262 0 0 0
5588 1 2.5264771636 7.3350074734 11.2741499361 0 0 0
5765 2 1.3444072354 9.5178609868 11.2925503891 0 0 0
5595 3 5.0420775366 5.8874760111 9.2341651442 0 0 0
5596 2 6.3292064334 8.0384740732 9.2386936296 0 0 0
5598 2 6.3106197512 6.6184050132 7.1801469751 0 0 0
5601 3 7.5359122189 5.8765922786 9.2018350263 0 0 0
5602 2 8.8445189655 8.0431199911 9.2576084443 0 0 0
5604 1 8.8630146293 6.6335186827 7.1862646234 0 0 0
5773 1 5.0681572926 8.7976227931 7.1633805893 0 0 0
5775 1 5.0790362976 10.2484315399 9.2337461931 0 0 0
5779 3 7.6153002853 8.774378336 7.2475965779 0 0 0
5781 2 7.5753121024 10.2323583187 9.2360713936 0 0 0
5594 2 5.0790073848 7.3218233801 11.282241382 0 0 0
5600 3 7.568551625 7.3762933701 11.2502927566 0 0 0
5783 1 8.8512696342 9.5216886317 11.2889117924 0 0 0
5607 1 10.0819145533 5.86330514 9.2523051876 0 0 0
5608 2 11.3522017087 8.062839994 9.2660626358 0 0 0
5610 2 11.3880784131 6.6236568489 7.2225195886 0 0 0
5613 2 12.6076235375 5.8695513362 9.2755599972 0 0 0
5614 2 13.8551241849 8.0457431002 9.2725088343 0 0 0
5616 2 13.8769089671 6.5899580584 7.2084521042 0 0 0
5785 3 10.1230335523 8.7955456267 7.2674608467 0 0 0
5787 2 10.1048218825 10.230251408 9.2238183314 0 0 0
5791 3 12.6058313143 8.753394708 7.2683542565 0 0 0
5793 2 12.6098273342 10.2386066097 9.2135335954 0 0 0
5789 3 11.3690935843 9.4712762552 11.2721891007 0 0 0
5626 2 18.898670695 8.075065038 9.2798236331 0 0 0
5619 2 15.1134185898 5.8917624619 9.2381982809 0 0 0
5620 1 16.4000559886 8.0617262889 9.2687206974 0 0 0
5622 2 16.3764055948 6.6318862127 7.1800294896 0 0 0
5625 3 17.6354164232 5.8852796138 9.2564197647 0 0 0
5797 3 15.0725327504 8.6862166094 7.214561873 0 0 0
5799 3 15.092294252 10.212783936 9.2502680079 0 0 0
5803 3 17.6289196034 8.7739215948 7.1798888585 0 0 0
5805 1 17.6378555918 10.2407783896 9.2571456257 0 0 0
5766 2 1.30388969 10.9691695271 7.1779817986 0 0 0
5772 1 3.8183488821 10.9999654881 7.1775285742 0 0 0
5764 3 1.305960785 12.4319007747 9.2094922221 0 0 0
5770 3 3.8454344576 12.450869475 9.2012049879 0 0 0
5946 2 1.2843177246 15.311417359 7.1998585759 0 0 0
5947 3 2.5526417065 13.1465379858 7.1816846592 0 0 0
5949 1 2.5507533448 14.6068605432 9.2619431185 0 0 0
5952 1 3.8141525564 15.3270430923 7.1940909471 0 0 0
5768 1 2.5396915228 11.6983224523 11.2865042604 0 0 0
5778 1 6.3342715873 10.9729011074 7.1935767101 0 0 0
5784 1 8.8383954861 10.9699215218 7.1970193005 0 0 0
5776 3 6.3729599855 12.4180705179 9.2892509089 0 0 0
5953 2 5.1060118 13.1757988873 7.1917092821 0 0 0
5955 1 5.0901832463 14.6056009359 9.2473664 0 0 0
5958 3 6.3931625211 15.3247642048 7.2051514301 0 0 0
5959 3 7.5797430145 13.1892163709 7.2155079731 0 0 0
5961 3 7.6440076589 14.6324875784 9.3094183881 0 0 0
5782 1 8.852577965 12.4165061903 9.239360347 0 0 0
5964 3 8.8643085085 15.3316075119 7.1614960725 0 0 0
5774 3 5.0844914146 11.7163175522 11.2691954376 0 0 0
5957 3 6.322100014 13.9076725205 11.2967524107 0 0 0
5960 2 7.5391808705 16.0526959437 11.2815623976 0 0 0
5963 2 8.8077069397 13.8553508416 11.2890440022 0 0 0
5790 3 11.3711359947 10.96449973 7.1931518084 0 0 0
5796 1 13.8838407701 10.9706956446 7.1976301939 0 0 0
5788 3 11.3454983339 12.3843332773 9.2320931082 0 0 0
5965 1 10.109387623 13.1434580257 7.1923736913 0 0 0
5967 1 10.1129588708 14.6082624112 9.2412425189 0 0 0
5970 1 11.360333462 15.3352800336 7.1820585555 0 0 0
5794 1 13.8778133042 12.4270015593 9.2539356493 0 0 0
5971 2 12.6185525047 13.1387334633 7.2139682026 0 0 0
5973 3 12.6485792301 14.5882414105 9.1661692534 0 0 0
5976 2 13.868884533 15.3515985479 7.1889177592 0 0 0
5792 1 12.5847616863 11.6948715477 11.2833907715 0 0 0
5966 3 9.9414749212 16.0581838451 11.2599359507 0 0 0
5969 1 11.3286120343 13.8960910004 11.2736735388 0 0 0
5972 3 12.6210229229 16.097593717 11.2502034537 0 0 0
5975 1 13.8430878744 13.9052192987 11.2841588414 0 0 0
5988 1 18.873599129 15.3508490984 7.1915997222 0 0 0
5808 1 18.8854073759 10.9892871645 7.1821874044 0 0 0
5802 3 16.3809784952 10.9683965134 7.1905356758 0 0 0
5800 1 16.3875316647 12.4208455814 9.2599928186 0 0 0
5977 2 15.132129615 13.1655409026 7.2303766397 0 0 0
5979 3 15.0913456086 14.6477715301 9.2502876381 0 0 0
5982 1 16.3868756365 15.3469236086 7.205647063 0 0 0
5983 3 17.5887304257 13.1333092097 7.1742953312 0 0 0
5985 1 17.6374731784 14.604591349 9.2425581305 0 0 0
5981 2 16.3593607727 13.9011091743 11.2906954872 0 0 0
5402 1 0.0445563681 2.9434652978 11.3217230932 0 0 0
5405 1 1.275417873 0.7559507716 11.3286599853 0 0 0
5408 3 2.5636294578 2.9297838429 11.3747457261 0 0 0
5411 2 3.7888578192 0.7949654626 11.3253501957 0 0 0
5585 3 1.2966691841 5.0988718453 11.3171023494 0 0 0
5591 3 3.8036977662 5.1641646382 11.3139042954 0 0 0
10806 2 1.3117994447 2.2153815728 13.3463455 0 0 0
10812 3 3.7898942774 2.2013031123 13.3677944987 0 0 0
10987 2 2.5531618935 4.4265193726 13.3461571435 0 0 0
10804 1 1.2498293132 3.6548051837 15.393774324 0 0 0
10809 2 2.5011202954 1.4733755229 15.409058701 0 0 0
10810 3 3.7601608772 3.6662024238 15.3775318943 0 0 0
5414 2 5.0441450311 2.9646089648 11.3109294823 0 0 0
5417 1 6.2787536615 0.7614619182 11.3471758429 0 0 0
5420 1 7.5835326082 2.9312085566 11.3337892088 0 0 0
5423 2 8.8334617605 0.746549508 11.3397367321 0 0 0
10818 2 6.2934126083 2.2453834695 13.392317053 0 0 0
10824 2 8.8254374106 2.2122533705 13.3874311421 0 0 0
10993 2 5.052123387 4.3932658195 13.3580286599 0 0 0
10999 2 7.5777827884 4.4331032887 13.3524244305 0 0 0
10815 3 4.9917187982 1.5092866476 15.3475519783 0 0 0
10816 2 6.2854693906 3.6973004184 15.4095867091 0 0 0
10821 3 7.5071976854 1.5653066496 15.4175381669 0 0 0
10822 1 8.8306750694 3.7003596689 15.4110133241 0 0 0
5426 1 10.0731642224 2.9469870773 11.3106754923 0 0 0
5429 1 11.3499481552 0.7770335804 11.3178418515 0 0 0
5435 3 13.8674172192 0.7199771484 11.3460314392 0 0 0
5609 3 11.2970254453 5.1536197425 11.3282133177 0 0 0
10825 3 10.0828650477 0.0813876914 13.3642689091 0 0 0
10830 1 11.32474403 2.2580431607 13.3690713373 0 0 0
10836 1 13.8490767565 2.2381739193 13.3665174109 0 0 0
11005 2 10.0694601775 4.4828352335 13.3367794383 0 0 0
11011 1 12.5823344833 4.4478506991 13.3489238959 0 0 0
10827 2 10.017784148 1.5124415478 15.4483448708 0 0 0
10828 2 11.3250459915 3.73666067 15.4239787942 0 0 0
10833 1 12.580840817 1.5374148327 15.4072753003 0 0 0
10834 1 13.8465202752 3.7066328726 15.4198725687 0 0 0
10848 2 18.8592302249 2.2821185954 13.4005972928 0 0 0
5627 3 18.8135916872 5.1374445432 11.345165512 0 0 0
5447 3 18.8983853402 0.8961188888 11.4634660612 0 0 0
5441 1 16.375028913 0.8040799043 11.3530532916 0 0 0
5444 2 17.6148579032 2.9989800869 11.3404463867 0 0 0
5621 1 16.3281817735 5.163240607 11.3278676741 0 0 0
10842 2 16.3614808811 2.2507665079 13.4353039864 0 0 0
10843 2 17.6282686707 0.0998995958 13.432321963 0 0 0
11017 1 15.0929242432 4.4117482683 13.3594005283 0 0 0
11023 2 17.6337466114 4.4623713551 13.3857423944 0 0 0
10839 3 15.1519012216 1.4867252279 15.3942473867 0 0 0
10840 3 16.4132299509 3.6933741956 15.3752879813 0 0 0
10845 2 17.6188461238 1.561144362 15.4411472779 0 0 0
10846 3 18.8615726749 3.7238160079 15.4224995526 0 0 0
5771 3 3.8493919177 9.5107461311 11.3565716495 0 0 0
10986 1 1.2542150455 6.5970962796 13.3295040766 0 0 0
10992 3 3.8128475861 6.6066897715 13.354344731 0 0 0
11167 2 2.5399761041 8.7728281034 13.3791382482 0 0 0
10984 3 1.2778763267 8.0508390676 15.4057674217 0 0 0
10989 3 2.4818155392 5.846926866 15.4143939529 0 0 0
10990 3 3.743334623 8.065710015 15.4708390282 0 0 0
11163 2 0.0537537119 10.1938945217 15.4316913951 0 0 0
11169 3 2.4944054585 10.2497577229 15.3950748213 0 0 0
5777 2 6.309390853 9.5209370548 11.3041135121 0 0 0
10998 3 6.3624221474 6.5421857357 13.3116056229 0 0 0
11004 3 8.8537448057 6.6045030238 13.3754236018 0 0 0
11173 3 5.0506209864 8.7178704097 13.3507917692 0 0 0
11179 1 7.584221089 8.763300523 13.3515716062 0 0 0
10995 3 5.0499500889 5.8384849716 15.3865426534 0 0 0
10996 1 6.323468588 8.0415860048 15.4179952426 0 0 0
11001 1 7.5805553214 5.8808126478 15.4324785651 0 0 0
11002 2 8.8387324313 8.0689482647 15.36251052 0 0 0
11175 1 5.060877362 10.2367695086 15.4028028621 0 0 0
11181 3 7.5859118098 10.2307766552 15.3817877595 0 0 0
11178 3 6.2952355944 10.904746459 13.3054513399 0 0 0
5795 1 13.8580840615 9.5232195256 11.2982542967 0 0 0
5606 1 10.0882206428 7.3080469009 11.3186621341 0 0 0
5612 2 12.5896848438 7.2949679362 11.3327055274 0 0 0
11010 3 11.3615371114 6.6386927201 13.4241875979 0 0 0
11016 2 13.8275601197 6.6068297229 13.3731623534 0 0 0
11185 2 10.1087130817 8.7987533941 13.3363159412 0 0 0
11191 3 12.6363555111 8.7980760047 13.3471981257 0 0 0
11007 1 10.095347431 5.8773093543 15.4352631942 0 0 0
11008 1 11.3248721731 8.0696998017 15.4150135551 0 0 0
11013 3 12.5965523718 5.8952436347 15.4872002063 0 0 0
11014 2 13.835544212 8.0715660617 15.4157639703 0 0 0
11187 1 10.0676744096 10.2384060065 15.3884741666 0 0 0
11193 3 12.6117282583 10.2347945068 15.3891617738 0 0 0
11190 3 11.312467996 10.9509706644 13.3342590535 0 0 0
5618 1 15.1145078466 7.3324780576 11.3330318505 0 0 0
5624 3 17.6549912481 7.3504127037 11.3523065792 0 0 0
5801 3 16.3671765921 9.5290992361 11.3107759931 0 0 0
11022 3 16.3943910425 6.6026410733 13.3909194155 0 0 0
11197 2 15.1146527439 8.8052966106 13.3717788355 0 0 0
11203 1 17.6280932303 8.7873408595 13.3556434654 0 0 0
11019 1 15.103251943 5.8682614245 15.4125190669 0 0 0
11020 2 16.3399577957 8.0322858293 15.425561455 0 0 0
11025 2 17.6452878219 5.8878647396 15.4145509917 0 0 0
11199 3 15.0967856288 10.2207642153 15.352507431 0 0 0
11205 3 17.5716767291 10.20287128 15.3908106795 0 0 0
11026 1 18.8608857499 8.0822138606 15.4102498432 0 0 0
5945 3 1.264542836 13.8905077382 11.3443929207 0 0 0
5948 3 2.5373936294 16.0652982055 11.3175596713 0 0 0
5951 1 3.8027226604 13.8705299267 11.3007488284 0 0 0
11166 2 1.3232165882 10.9670960409 13.4107866129 0 0 0
11172 3 3.7927571896 10.9643439051 13.326314537 0 0 0
11346 3 1.2693606637 15.3376504363 13.3725082493 0 0 0
11347 1 2.5212067482 13.1570529537 13.3725950901 0 0 0
11352 1 3.784966809 15.3333448751 13.3620120952 0 0 0
11164 3 1.2081481982 12.3904534065 15.419055692 0 0 0
11170 3 3.7688994696 12.4085683111 15.3904582073 0 0 0
11349 1 2.5048986813 14.6038674822 15.4224301547 0 0 0
5780 2 7.5671149879 11.6889781748 11.3029493296 0 0 0
5954 3 5.061425119 16.094060717 11.3221071649 0 0 0
11184 3 8.7998427622 10.9791664508 13.3410824733 0 0 0
11353 2 5.0422618954 13.1051116953 13.3390137493 0 0 0
11358 1 6.2964307357 15.3389810056 13.3583923383 0 0 0
11359 1 7.5515434403 13.1362180923 13.3426855838 0 0 0
11364 1 8.8042218474 15.3334323822 13.3435296157 0 0 0
11176 1 6.310247822 12.4040778944 15.3894660833 0 0 0
11355 1 5.0538674045 14.5951961884 15.4105589582 0 0 0
11361 3 7.5948498734 14.6061131288 15.39219402 0 0 0
11182 2 8.8428133328 12.4372712468 15.3858676839 0 0 0
5786 2 10.0850991579 11.6958007251 11.3091360782 0 0 0
11196 2 13.8387218743 10.9649623074 13.3487980873 0 0 0
11365 3 10.05478513 13.1303998981 13.3538922297 0 0 0
11370 1 11.3108725307 15.3572897728 13.2923705078 0 0 0
11371 1 12.5670202023 13.1515057831 13.3425245021 0 0 0
11376 1 13.8301167079 15.3647145589 13.3438843018 0 0 0
11188 1 11.3367676604 12.4191580603 15.3883518693 0 0 0
11367 2 10.0983386776 14.6502211973 15.4106482786 0 0 0
11194 2 13.8317478458 12.4004324105 15.4339563927 0 0 0
11373 3 12.5762523566 14.6297808947 15.3895313498 0 0 0
5987 3 18.8664326322 13.8704171593 11.3361950208 0 0 0
5798 3 15.1472460719 11.696658997 11.331351092 0 0 0
5804 3 17.6498043908 11.7273290961 11.3353615668 0 0 0
5978 3 15.1385978318 16.1142789035 11.3570613568 0 0 0
5984 1 17.6267194058 16.0671899544 11.3102563659 0 0 0
11388 1 18.8890018121 15.3339302113 13.3810589351 0 0 0
11208 2 18.8696796295 10.9989693629 13.371392344 0 0 0
11202 2 16.3906760972 10.9776016903 13.3239355787 0 0 0
11377 1 15.0780237376 13.1673262003 13.3558779976 0 0 0
11382 3 16.3638954933 15.3123365566 13.3693541802 0 0 0
11383 3 17.5727746881 13.1605166344 13.3503814623 0 0 0
11200 1 16.3522493064 12.4255142679 15.4082831781 0 0 0
11379 1 15.0966215016 14.6197963137 15.4092428788 0 0 0
11385 3 17.6041193659 14.5945122486 15.3950272736 0 0 0
10805 3 1.2921326279 0.732022056 17.498326175 0 0 0
10808 3 2.5495688409 2.9896063239 17.4592552252 0 0 0
10811 1 3.7810109285 0.7907586757 17.443186039 0 0 0
10985 2 1.3046970837 5.1388949268 17.4315372863 0 0 0
10991 2 3.7998540937 5.1508329036 17.4444147329 0 0 0
16203 3 0.0808539861 1.5106923819 21.5526903339 0 0 0
16206 3 1.2843518259 2.2154538244 19.5328641463 0 0 0
16207 2 2.5297842877 0.0733550733 19.504917815 0 0 0
16209 2 2.5729957039 1.506786109 21.5502909378 0 0 0
16210 3 3.865179431 3.6860841894 21.5600708869 0 0 0
16212 1 3.808243837 2.2590645857 19.481179523 0 0 0
16381 1 0.0529872581 4.4073984216 19.5145230496 0 0 0
16387 3 2.5238751386 4.4269934076 19.5007450845 0 0 0
10814 2 5.0464274826 2.9713157309 17.4250393431 0 0 0
10817 3 6.2592531824 0.8178143427 17.4810910293 0 0 0
10820 3 7.5635820846 2.9942645369 17.4940749372 0 0 0
10823 1 8.8034734062 0.8086857537 17.4782774789 0 0 0
10997 3 6.3154450382 5.1341154912 17.4654247315 0 0 0
11003 2 8.8455965049 5.121662439 17.4903447816 0 0 0
16215 3 5.0954849054 1.5074144587 21.5046961264 0 0 0
16216 3 6.3941432578 3.6983514508 21.5318703424 0 0 0
16218 2 6.3271125629 2.2679492051 19.4883928947 0 0 0
16222 2 8.8647519555 3.6733553642 21.55518346 0 0 0
16224 2 8.8418304599 2.2496535138 19.5356747532 0 0 0
16393 1 5.0795039286 4.433849201 19.5185276953 0 0 0
16399 2 7.6245030739 4.4260592422 19.5119237863 0 0 0
10826 3 10.069386739 3.0026703223 17.4874623283 0 0 0
10829 1 11.3354354062 0.824625267 17.4733927266 0 0 0
10832 1 12.5824163019 2.9971687608 17.4609864868 0 0 0
10835 1 13.8571893954 0.8222537903 17.4597824269 0 0 0
11009 2 11.3265244382 5.1508299862 17.5097857021 0 0 0
11015 2 13.8377661794 5.199832543 17.4743161382 0 0 0
16225 2 10.0860835682 0.0868518351 19.5024687343 0 0 0
16230 3 11.3025768893 2.2684613253 19.5524017969 0 0 0
16231 1 12.5924850195 0.098777735 19.5147038581 0 0 0
16233 2 12.5793746135 1.5531623924 21.5481734476 0 0 0
16236 3 13.8704868748 2.2601328249 19.5286846376 0 0 0
16405 3 10.120959294 4.4349845512 19.4932433974 0 0 0
16411 1 12.6214278916 4.4186722506 19.5231499993 0 0 0
16248 1 18.8933131626 2.2513485345 19.5013055768 0 0 0
16246 1 18.8937520876 3.7079082288 21.5391342563 0 0 0
11027 2 18.8871081098 5.1734518125 17.4632839252 0 0 0
10847 1 18.8829263061 0.7992155294 17.4673217937 0 0 0
10838 1 15.1131280145 2.9843006098 17.4463747474 0 0 0
10841 2 16.3711635208 0.8046028034 17.4370178357 0 0 0
10844 2 17.6162932309 2.9892116753 17.4528625559 0 0 0
11021 1 16.3650942674 5.1625805059 17.4586320213 0 0 0
16237 2 15.1223060773 0.1289029358 19.4942487792 0 0 0
16239 1 15.1230684171 1.51656342 21.5508627836 0 0 0
16242 3 16.3795521533 2.2014684787 19.4830274498 0 0 0
16243 2 17.6349804426 0.0787773018 19.5239385398 0 0 0
16245 2 17.6071878012 1.5546762275 21.5300214125 0 0 0
16417 1 15.1382463292 4.4268771197 19.5198831011 0 0 0
16423 1 17.6456606022 4.4304325484 19.5191034668 0 0 0
16572 3 3.7814098868 10.9142363178 19.4860105098 0 0 0
16566 1 1.2694706049 10.9467610324 19.5258571345 0 0 0
10982 3 0.1571090489 7.2640632223 17.4764141452 0 0 0
10988 2 2.5582160968 7.3096749006 17.4778390381 0 0 0
11165 3 1.3688351542 9.4688363899 17.4907012047 0 0 0
11171 2 3.795409587 9.5272583011 17.4422920675 0 0 0
16384 2 1.314953798 8.0356712677 21.5553089856 0 0 0
16386 2 1.2969332147 6.6079653673 19.5137685074 0 0 0
16392 1 3.8262699505 6.5822432372 19.5579342392 0 0 0
16561 3 0.0880593603 8.6797997797 19.4952133616 0 0 0
16567 2 2.5829097482 8.7508861287 19.5097696389 0 0 0
16584 2 8.8221084313 10.9283754266 19.5159948194 0 0 0
16578 3 6.3120152673 10.9447344491 19.5408428159 0 0 0
10994 3 5.030002455 7.3107312408 17.4806779112 0 0 0
11000 1 7.5615281984 7.3259342933 17.4700332274 0 0 0
11177 1 6.3086946691 9.5052706119 17.4623599238 0 0 0
11183 1 8.8198323339 9.5065340382 17.4527718567 0 0 0
16396 3 6.3202286447 8.1105945351 21.5575100948 0 0 0
16398 1 6.3339031249 6.602408733 19.5324570739 0 0 0
16402 1 8.8629492713 8.0850661883 21.5424574284 0 0 0
16404 1 8.8588015907 6.6151050491 19.5066095041 0 0 0
16573 3 5.0373440526 8.7955165876 19.5232146953 0 0 0
16579 2 7.5487254007 8.8008534592 19.524355938 0 0 0
16596 3 13.8716266803 10.9556118596 19.5380560962 0 0 0
11006 1 10.0696806123 7.3295688748 17.4689818119 0 0 0
11012 2 12.5766545167 7.3575492937 17.4683078442 0 0 0
11189 3 11.3458447433 9.5271046793 17.4367036373 0 0 0
11195 2 13.8515988079 9.5280770473 17.4627213595 0 0 0
16407 2 10.1021407664 5.8694761569 21.5174644877 0 0 0
16408 1 11.3655113189 8.0678670762 21.5330438148 0 0 0
16410 3 11.4026932851 6.6206343791 19.476583058 0 0 0
16413 1 12.5937508987 5.8882232024 21.560178494 0 0 0
16414 2 13.866172695 8.1088258402 21.552113351 0 0 0
16416 2 13.8507285427 6.6385113662 19.5023549324 0 0 0
16585 3 10.0755030206 8.8012381058 19.4770244371 0 0 0
16587 3 10.0943011952 10.2774980732 21.5623028442 0 0 0
16591 2 12.5824029221 8.8136695747 19.4931410323 0 0 0
16428 3 18.889051403 6.6106857389 19.4575979347 0 0 0
16426 3 18.8577321726 8.0640731149 21.5195770912 0 0 0
11207 2 18.8849501528 9.5495083557 17.4697433789 0 0 0
16605 1 17.7086319089 10.2761005192 21.5498065324 0 0 0
16603 2 17.6372511888 8.7958157718 19.4966644657 0 0 0
16597 1 15.1074225752 8.8049459674 19.5102400695 0 0 0
16422 3 16.3450428176 6.6589217057 19.4700238364 0 0 0
16419 1 15.0947521443 5.8766937312 21.5498114408 0 0 0
11201 2 16.3550730586 9.5239076015 17.4511946379 0 0 0
11024 2 17.6227900368 7.3428267506 17.4740847888 0 0 0
11018 3 15.0769004117 7.3589027746 17.4547956091 0 0 0
16752 1 3.790002622 15.3307334259 19.498987503 0 0 0
16749 1 2.5301283612 14.576347465 21.5607458885 0 0 0
16747 2 2.5488991097 13.1293229677 19.4814638561 0 0 0
16746 2 1.2657789613 15.3155983768 19.5238333214 0 0 0
16570 3 3.7884114347 12.3770285413 21.557617103 0 0 0
16564 1 1.2626771098 12.4024465008 21.5566546987 0 0 0
11351 3 3.7928711704 13.8915230669 17.4360204231 0 0 0
11348 1 2.5505643248 16.0649762887 17.4775176436 0 0 0
11345 2 1.2681283339 13.8763961009 17.4497551703 0 0 0
11168 1 2.5211749816 11.7188880041 17.4568061859 0 0 0
16758 2 6.3074046906 15.3524151535 19.4814502787 0 0 0
16755 1 5.0609427401 14.5980835011 21.542820645 0 0 0
16753 1 5.0498304017 13.1385337532 19.5046176184 0 0 0
11363 3 8.845090374 13.8411374048 17.4258425559 0 0 0
11360 3 7.5729176273 16.0584063823 17.467830636 0 0 0
11357 1 6.3107438518 13.8774492028 17.4407593548 0 0 0
11354 2 5.0862083441 16.0582962359 17.446040755 0 0 0
11180 1 7.5648374508 11.6844238513 17.451690965 0 0 0
11174 3 5.0368357433 11.7140962716 17.4756669549 0 0 0
16759 1 7.5663459725 13.1504767149 19.4970375238 0 0 0
16582 1 8.8289757432 12.4148238871 21.5421613591 0 0 0
16764 1 8.8381298677 15.3156527844 19.5143919115 0 0 0
16776 1 13.9021241715 15.3513288612 19.4815167772 0 0 0
16773 3 12.6337385425 14.567335546 21.5329107561 0 0 0
16771 2 12.6374492144 13.1406445683 19.5053616358 0 0 0
16770 3 11.3923033347 15.3205283406 19.5322711306 0 0 0
16765 1 10.0943489689 13.1380572672 19.5072492008 0 0 0
16590 1 11.3338007186 10.9720254607 19.5114802596 0 0 0
11375 3 13.8449593327 13.8726643051 17.4333083184 0 0 0
11372 3 12.5747025603 16.0482852022 17.4386265967 0 0 0
11369 3 11.3290495431 13.8382596318 17.4555478693 0 0 0